# vtk DataFile Version 3.0
d-2__ created by libgimli-v1.5.0-1-g5991b6ac
ASCII
DATASET UNSTRUCTURED_GRID
POINTS 3065 double
14.646647106361	10.075660810886	0
14.704832811816	9.9744824778853	0
14.741572761215	10.143570688214	0
7.2181179570912	12.323267801616	0
6.9022853070009	12.159878277929	0
7.188568129403	11.864968865302	0
12.573766225573	8.2541691958959	0
12.179090385116	7.8396649872294	0
12.486344232856	7.7791041952802	0
10.909490913954	12.100065284392	0
11.157527929117	12.134706706046	0
10.807865018668	12.328963878518	0
10.246630703596	12.451261426896	0
10.370786380608	12.571785344107	0
10.283370652996	12.620349637225	0
23.486823884586	4.2589561787297	0
23.872774184789	4.3331786567402	0
23.693453371076	4.6788038393608	0
9.4017034496321	12.989518397958	0
9.459889155087	12.888340064957	0
9.4966291044861	13.057428275285	0
8.6528831969526	9.1661723501876	0
9.0889129509339	9.1546198128334	0
9.0172223973042	9.5848707535605	0
4.95	14.894536113346	0
4.9002967662305	14.698789777549	0
5.05	14.834347813918	0
7.8357302798552	13.980149844525	0
7.7483145522431	14.028714137643	0
7.7115746028439	13.859625927314	0
7.9373561751407	13.751251250399	0
9.2631921819019	12.842543338384	0
9.0547266763919	13.085654315995	0
8.8463136869378	12.696007878209	0
6.9615730037337	14.465792775704	0
6.9945996683525	14.319328169198	0
7.136404458958	14.368664189468	0
21.8222466978	6.2098629456668	0
21.734830970188	6.2584272387846	0
21.698091020789	6.0893390284563	0
9.5840448320983	13.008863982168	0
20.073932145557	7.181148808024	0
19.986516417945	7.2297131011419	0
19.949776468545	7.0606248908135	0
8.1805694002704	13.571297247173	0
8.3602246455282	13.688764085818	0
8.1853931903038	13.785892672053	0
20.765748039212	6.6761602926357	0
20.627236771482	6.5291852330617	0
20.823933744667	6.5749819596349	0
8.5857318789655	13.373982996136	0
8.5275461735105	13.475161329137	0
8.3890349057803	13.328186269563	0
9.2343819216497	13.203121154639	0
9.0595504664254	13.300249740875	0
10.311662072528	12.260060065814	0
10.363276453366	12.455311173661	0
20.948089421678	6.6955058768454	0
21.049715316964	6.4666072827198	0
7.6608988246309	14.077278430761	0
7.653388897389	13.960804260315	0
28.908739718026	5	0
28.508739718026	5	0
28.708739718026	4.8492605261212	0
13.77248983024	10.561303742065	0
13.830675535695	10.460125409064	0
13.867415485094	10.629213619392	0
12.119100932851	11.60049948175	0
12.082360983452	11.431411271421	0
12.206516660463	11.551935188632	0
27.358739718026	4.8945361133462	0
27.309036484257	4.6987897775495	0
27.458739718026	4.8343478139176	0
22.57224829691	5.6036960972777	0
22.798029869207	5.4953214203625	0
22.696403973921	5.7242200144881	0
13.080673936584	11.066292257453	0
12.956518259573	10.945768340243	0
13.18229983187	10.837393663327	0
28.458739718026	4.8343478139176	0
28.408739718026	5	0
12.308142555748	11.323036594506	0
22.547801874951	5.2633883138599	0
13.63397856251	10.414328682491	0
12.024175277997	11.532589604422	0
12.031685205239	11.649063774867	0
15.703145764949	9.6093634639172	0
15.615730037337	9.657927757035	0
15.578990087938	9.4888395467067	0
12.444587677104	9.0315078187863	0
12.75	9.25	0
12.46875	9.40625	0
10.45820210822	12.523221050989	0
14.654157033603	10.192134981332	0
17.902749122926	8.2149218349628	0
18.150786138089	8.249563256617	0
17.801123227641	8.4438204290885	0
11.332359384341	12.03757811981	0
11.244943656729	12.086142412928	0
11.237433729487	11.969668242483	0
17.130607666996	8.4717569577762	0
17.327304640181	8.5175536843494	0
17.269118934726	8.6187320173503	0
12.018062834866	9.3144627641309	0
16.96875	6.90625	0
16.518062834866	6.8144627641309	0
16.944587677104	6.5315078187863	0
12.759821286388	10.899971613669	0
12.551355780878	11.14308259128	0
12.342942791424	10.753436153495	0
16.577303041071	9.1237205327386	0
16.453147364059	9.0031966155281	0
16.678928936356	8.8948219386129	0
21.923872593085	5.9809643515411	0
14.508135838631	9.9286857513121	0
8.7098875559768	13.494506913346	0
8.6224718283646	13.543071206464	0
7.5190940340254	14.02794241049	0
-0.24940646753892	14.834347813918	0
0.05	14.834347813918	0
0	15	0
2.3	15	0
2.2	14.888006064741	0
2.4	14.810067208388	0
11.507190839566	11.940449533575	0
11.36538604896	11.891113513304	0
11.502367049532	11.725854108695	0
0.1	15	0
0.3	14.849260526121	0
0.5	15	0
-0.95957299032574	12.742247653798	0
-0.63660515661073	12.736198774421	0
-0.72105850144488	13.237141247116	0
2.9	15	0
2.7	14.849260526121	0
2.95	14.834347813918	0
1.2	14.888006064741	0
1.3	15	0
1.1	15	0
1.9	15	0
1.95	14.834347813918	0
2	15	0
23.155770102009	4.4707815868157	0
23.398627607885	4.6419549088128	0
22.971047224781	4.718656217856	0
13.779999757482	10.67777791251	0
10.633033563444	12.426092464753	0
10.491228772839	12.376756444483	0
10.628209773411	12.211497039873	0
2.0997032337695	14.698789777549	0
2.05	14.894536113346	0
8.8115134512622	13.265608319221	0
7.6871281808847	13.519318143897	0
3.05	14.894536113346	0
3	15	0
1.05	14.894536113346	0
1	15	0
25.508739718026	5	0
25.458739718026	4.8945361133462	0
25.608739718026	4.888006064741	0
0.95	14.834347813918	0
0.9	15	0
23.708017310135	5.0679061559452	0
23.57570494199	5.2584272387846	0
23.492391392804	5.1534065041647	0
6.5387045333462	14.528279940285	0
6.7500015991102	14.393833151611	0
6.7867415485094	14.562921361939	0
7.4860673694066	14.174407016996	0
7.3112359141823	14.271535603232	0
7.3148706664546	14.058847515876	0
6.0874157276122	14.951435706882	0
6	15	0
5.95	14.834347813918	0
13.954831212706	10.580649326274	0
7.5148776296588	13.813829200741	0
11.889880414633	11.599727754597	0
6.8666473488796	14.397882898376	0
6.8741572761215	14.514357068821	0
1.4	14.810067208388	0
3.95	14.894536113346	0
4.05	14.834347813918	0
4	15	0
3.1	15	0
12.993258208972	11.114856550571	0
12.898332554118	11.046946673243	0
12.90584248136	11.163420843689	0
3.9	15	0
4.1	15	0
2.1	15	0
5.1	15	0
5	15	0
7.1315806689246	14.154068764588	0
5.9	15	0
5.3	14.849260526121	0
4.6070433069999	14.368240644588	0
4.6	14.810067208388	0
5.1938980518111	14.524993056905	0
1.0997032337695	14.698789777549	0
25.708739718026	5	0
4.7	15	0
4.5	15	0
24.408739718026	5	0
24.316180298466	5.0287141376427	0
24.321832839145	4.8833962425865	0
24.708739718026	4.8492605261212	0
24.508739718026	5	0
24.458739718026	4.8343478139176	0
23.483145522431	5.2871413764274	0
11.573663228844	6.6878504141764	0
11.783228215591	6.953244789404	0
11.498511972069	7.1356956560705	0
25.308739718026	5	0
24.908739718026	5	0
25.108739718026	4.8492605261212	0
25.408739718026	5	0
25.358739718026	4.8343478139176	0
15.520804382483	9.5900178797075	0
15.528314309725	9.7064920501529	0
25.921540276389	4.4709363375124	0
26.277022110672	4.3098125374061	0
26.309036484257	4.6987897775495	0
21.069293459246	4.0184782266431	0
21.444587677104	4.0315078187863	0
21.46875	4.40625	0
25.214841666215	4.524993056905	0
25.508442951795	4.6987897775495	0
23.395729794819	5.3357056695452	0
23.358989845419	5.1666174592169	0
29.8125	2.6258505226016	0
30	3	0
29.625	3	0
5.8122409423352	10.291228465074	0
5.9889649985263	10.545789285321	0
5.5715926789368	10.688360310892	0
12.278524372398	8.4033099465931	0
12.266749266227	8.7424709281467	0
11.71080923903	8.5533847165846	0
26.458739718026	4.8343478139176	0
26.358739718026	4.8945361133462	0
23.147692779655	5.301064247891	0
23.04606688437	5.5299628420167	0
11.120787979718	11.965618495718	0
26.408739718026	5	0
26.508739718026	5	0
26.708739718026	4.8492605261212	0
9.409213376874	13.105992568403	0
30.458635160201	3.8690920654536	0
30.669330384347	4.1196162860905	0
30.364109258215	4.2441307961306	0
28.358739718026	4.8945361133462	0
27.408739718026	5	0
27.508739718026	5	0
25.6875	2.4642195584136	0
25.771866335589	2.1927504712561	0
26.053487503597	2.1539862920131	0
25.384151503975	2.7152844425934	0
25.6875	2.76491822766	0
25.5	3	0
9.2674085862685	13.056656548133	0
27.708739718026	4.8492605261212	0
28.308739718026	5	0
15.382293114753	9.4430428201335	0
29.308739718026	5	0
29.358739718026	4.8343478139176	0
29.408739718026	5	0
1.8061019481889	14.524993056905	0
29.658146185565	4.8343478139176	0
1.7	14.849260526121	0
1.5	15	0
30.090078193556	3.9711909286582	0
15.173827609243	9.6861537977444	0
15.3534828545	9.8036206363886	0
15.178651399276	9.9007492226244	0
18.23069193846	8.0845247930538	0
18.238201865702	8.2009989634992	0
18.11404618869	8.0804750462887	0
4.8	14.888006064741	0
4.9	15	0
16.402471585846	9.2208491189743	0
16.394961658604	9.1043749485289	0
16.489887313458	9.1722848258564	0
6.1791038580454	14.704649136022	0
17.36404458958	8.6866418946778	0
17.451460317192	8.6380776015599	0
3.6	14.810067208388	0
3.7	15	0
3.5	15	0
16.922142161486	8.7148679353872	0
16.4287009421	8.6628888321103	0
17.302858218222	8.1772459009316	0
17.553086212478	8.4091790074343	0
14.056457107991	10.351750732149	0
14.828988488828	10.095006395096	0
5.5	15	0
5.7	14.849260526121	0
21.1875	4.5625	0
20.90625	4.71875	0
20.882087677104	4.3440078187863	0
6.8150329680421	14.202631790528	0
6.4739761191302	14.193291511538	0
15.804771660235	9.3804648697915	0
14.930614384113	9.8661078009702	0
4.3	14.849260526121	0
19.199774869435	7.6667917392027	0
19.112359141823	7.7153560323205	0
19.075619192424	7.5462678219922	0
9.9706052236163	12.250719786823	0
10.035333637832	12.585708215571	0
20.860673694066	6.7440701699633	0
20.773257966454	6.7926344630811	0
9.6856707273838	12.779965388042	0
-0.43250979015094	13.369587523725	0
-0.85662454898514	13.581460773951	0
22.514062591455	5.7048744302785	0
22.375551323725	5.5578993707045	0
20.742913400511	4.047377368749	0
21.292928542093	6.286653279494	0
21.472583787351	6.4041201181382	0
21.297752332127	6.5012487043739	0
24.1875	2.7176993931111	0
23.626112873365	2.548251847651	0
24.1875	2.3788043021908	0
21.958672828761	5.41136391053	0
22.167085818215	5.8010103483154	0
21.673644598829	5.7490312450385	0
20.175558040842	6.9522502138984	0
19.891590763091	7.1618032238144	0
19.899100690332	7.2782773942597	0
19.017433486969	7.647446154993	0
18.878922219239	7.500471095419	0
18.325617593314	8.1524346703813	0
6.2866035579579	13.872661794752	0
6.1724083866651	13.36768415665	0
[...]
CELL_DATA 5846
SCALARS Coverage double 1
LOOKUP_TABLE default
2.4051778504789 0.88765445940364 0.75286914657774 2.3232027150243 2.8649400034374 1.3766451808624 2.4078063943181 0.62854369459868 1.9022433024929 2.8188507882664 2.2869623124146 1.9715034841731 2.3474649114957 2.8314621298575 2.8620921402042 2.8534771059283 2.233796321243 1.9553242278578 2.0278074696244 2.2590665510129 2.0384512233161 2.2832223791857 2.8577382223936 1.9870202400864 2.4327458938283 2.8746832402946 1.6731988612188 2.2539158490108 2.3607550184169 2.6544504841015 2.3482115673886 2.0115371967725 2.0671012814641 2.8997612335702 2.8770936848388 1.0242144264602 2.3802567520661 2.894206822185 2.9313965971526 2.3161699254285 2.9022114427803 2.0356831267138 0.98391831192593 0.97339294506751 2.3994732964248 2.005098389653 2.3480045550908 2.2688031229259 2.0578338360996 2.8380180559615 2.4126540952683 1.4605026111812 2.1002582518472 2.2886515944538 1.7979935343601 1.7667304089663 2.4167909825007 0.16745188300636 2.1847726930441 2.1947796110851 2.7085956020344 1.3935133055965 2.9358139256231 2.2925393879646 1.7790989170486 2.2075328796139 2.0414899078128 2.2471328965217 2.1565887790132 2.7176016771832 2.2752311630346 2.691307432518 2.317168373361 2.3107011276645 2.2333722540562 2.7273746078205 2.466218619522 2.9080382666854 2.012895919998 2.4503090560028 2.2462219029292 2.0437296540524 2.2338351296289 2.745851198479 2.4452010457878 2.9207242103861 2.7680111829012 2.7210668537167 2.4485515131886 2.2279376254711 2.7495997461989 2.2251010303766 2.5132748001095 2.2283384169252 1.8628566058643 1.9971244384122 1.638279596604 2.2616225850149 2.8328892975405 2.3915944256733 2.2230059000976 2.0457746679642 2.1449599160612 2.8441471547277 2.2514190278679 2.8861777009192 0.53984696789609 2.122941912963 2.6982113093194 2.9080142204313 1.5401055450504 0.86447975904921 1.7331596711742 2.8486764857216 2.7488316393024 0.24071582975524 2.0012537989343 0.5628459209031 2.2126989693927 0.82083572035044 1.7362615285271 2.2177457714943 2.4002043887638 2.1658711170378 2.1388099284051 2.8961221817385 0.47638583187239 2.1247799429871 2.6801717230971 0.4983776795669 0.62725895972338 2.4156507750792 2.301692957622 2.1003796890052 2.6793680201442 2.0415302725831 2.8704043826723 2.248652551121 1.7202116405364 1.5355828045367 2.1129025488165 0.47385389718027 2.8899068798889 2.2848504965692 2.1809030618548 2.4200034417066 2.2959740702665 2.7919414095681 2.9186579218721 2.8852956070707 2.0534094932937 2.7225844263697 2.8844503422686 2.0969061759208 2.1127242739611 2.1663410571325 2.1129979414511 2.4215672002704 2.8250382884083 2.1444243479605 2.3686023804128 2.9042513075712 2.293568484686 2.15830314078 0.94806753894133 1.9310056042682 2.4001386529735 1.836602082427 2.3538115084225 2.3710240637538 2.8390596444826 2.1949313202388 2.8596677835269 2.1083455063804 2.8633495283276 2.8374118288896 2.3348196725831 0.3443945893423 1.9122404121614 0.81511963729811 2.1797359500055 0.61403399820498 1.8133598565809 2.3055484399289 2.8855870216913 2.0560080340406 2.0002800019715 2.9051757058155 2.4162151353687 1.3332284023091 2.3301271798969 2.2830864821845 2.8895654670704 2.0618926733001 2.3796935246665 2.3143054205189 1.6139637118553 2.8736126192048 2.3216616898873 2.3729709885906 0.39044414236152 2.2821356070338 1.9345498321477 2.4271458121187 2.2373387402728 1.6180831577645 1.481687912921 2.6958950989407 1.5140834753368 2.6947066734104 2.712807263477 2.8711649878756 2.3464550683466 1.784430307424 1.9827351783923 2.9175710442333 2.4134091579626 2.4338861062689 2.1300212982364 2.4455744128085 2.2930883658136 2.3604396783225 2.2028574413062 2.3803515729084 2.2144345277218 2.4510179393102 2.2969543309535 2.436274888362 2.1278663500954 1.8342621757544 2.1137044722969 2.2435693140292 2.2630652565456 2.8150465513365 2.8416204518606 2.8548992032888 2.3185099911817 2.1332404246291 1.9451756020854 2.1711753444329 2.0061030485499 1.9765680687972 2.0857114843701 2.2268344932099 2.3970676630895 2.3874078548059 2.4370349688708 2.423548617499 2.2644886440354 2.3199283386507 2.1452067334731 2.3469693728003 2.0335292225582 2.31821236047 1.9781639657233 2.0516984132839 2.0703834824872 2.3781486391634 2.4175443162505 2.2731721380851 1.8711996185927 0.68270313956475 1.9125222518148 2.1563875404565 1.7757274156155 1.9871234170633 2.3312166564384 1.7517591723283 2.138927540389 1.8347274847125 2.4559756473816 2.0391440494497 2.134667000116 2.4620823205721 2.472756317014 1.4267842660581 2.0564662875105 2.388715548933 1.9373401208636 2.084773041009 2.4122472707757 1.8570968959445 2.1320690511487 2.4783679144384 1.0372306306054 1.9311860498134 2.4674732085928 1.8786630016204 1.8194138997018 2.1585879938087 0.71470389485612 1.8797633002082 2.1980450819297 0.89120554011055 1.9857108465547 2.2548658992122 2.4543171353398 2.1803468066937 2.0087780325905 2.3535255289226 2.0553255584557 2.2929505175115 2.3765381698462 2.3450916559532 0.71920681910001 2.1290641643259 2.3886888328614 2.3708238018869 2.4013437508949 1.9786083422598 2.2169327237346 2.0480746959957 2.2708945590228 1.9361158500443 1.5816795585623 2.2268514649696 2.2447847860253 1.926090670201 2.1566816931082 2.2447245267809 2.0988397240744 2.1756307436615 2.0699498780542 2.0217661310849 2.037821327531 2.1852122807254 2.2481654597201 2.3454694302304 1.9348171373394 1.5156066317661 2.2514926404356 2.3490343625379 2.1664823108572 2.277803292677 1.3341020783606 1.5563637175154 2.1737505512432 2.2838735804054 2.2508109088005 2.3451191480597 1.8697120208058 0.89585132044929 1.9017356838577 2.3047203738928 2.0494870429987 1.9657539691303 2.093332568764 2.4204868593727 1.3969840939774 2.025201399566 2.2282606013877 2.2204475285335 2.3233431776679 2.1094497936613 2.232597964359 2.1190191212728 2.442270624951 2.0117027895883 2.0880588403411 2.1125468167495 2.046687504311 2.2367882244018 2.3274164695 1.8827561209551 2.2060169118517 2.187991773058 1.4108085807503 2.2183928358793 1.3879490932129 2.2349304291686 2.3287847185995 2.1384349580838 2.2514101850557 2.0622152356188 2.1220323831817 1.9295418230101 2.2745145343534 2.1787597510494 2.2387090798107 2.0887247971742 1.9943475603414 2.0925904994249 2.0391286443414 1.4745232078047 2.4232627239612 1.9006959154819 2.4452387439131 0.85012146289585 2.1861296125883 2.2742129075253 1.8991839796911 2.2083376562415 2.2535551629379 1.9937961035912 1.549854224033 2.1017149279891 1.8812086315937 2.1085475366486 1.9691931877655 2.0198575124312 2.2020659586563 1.2084380151409 2.2608008749851 1.8400975046407 1.8188745666064 1.1256450163773 1.9955797927633 2.3213047390893 2.2256771182844 2.0841539347078 1.8001363814559 2.1620590296345 1.987190535259 2.3024427201489 1.9712439208583 2.305137223712 1.9920943663143 2.3157779067887 1.9123298876927 2.221364668308 1.7970872873522 2.2400916653262 1.9842193822722 2.3218345708965 1.9825257703101 2.3091185284581 1.6346764808843 1.9691041819293 1.692250658744 2.0203473484234 1.9678799295462 2.2888066959502 1.8712552086165 2.1696306378774 1.8862726394239 2.2044441478123 2.2281579271774 2.2722389671871 1.9206641160863 2.0242765842636 1.9634122743754 2.315346200446 2.2881674990317 1.7830632677812 2.2577046768171 1.6913989251465 2.102173661145 1.8126003229878 1.5336142084231 2.1474491259081 1.7623604768648 2.1233105040114 1.8462781122307 2.1260163564746 2.0798609523859 1.9373044274391 1.8849705521569 2.1296208735862 2.0227648128588 2.0366046588641 1.4872689908582 1.7974576592079 1.7866238749406 1.7894480482234 1.7762869093549 1.9681498736504 2.3356260371502 2.1833156692351 1.8264169389658 1.8446760280317 2.2493682981538 2.0664971181883 1.8893127300152 1.9579299671138 2.344739887904 2.2187625028024 2.0853579509187 1.0104936750316 1.1714248212292 1.1159435437837 0.99694896729347 2.2544554456042 2.1261314083358 1.9555646855182 2.2927735763538 2.2018816762966 2.0402427881585 2.2465344098807 2.1059549545045 2.2100523841073 2.0423689148019 1.9732782435464 1.5116448394028 2.1103640306618 1.952541935825 2.0744839887094 2.0367465108848 2.0022803328697 1.8329467302205 1.9778782804042 1.8749201108547 1.9348167930709 2.2439538174399 2.1415771430419 2.2075143138448 2.2533334294198 2.1330749198913 2.2110335312486 2.1606753662914 2.064483348986 2.1113661732602 2.1968132325042 1.9346038397851 2.1368287292084 2.2664840552622 2.1154368613729 2.218568176586 1.8975114179087 1.853758185849 1.826208500015 1.946828505133 1.8943345694036 1.8996338199097 2.2503890502275 2.1694004962379 2.0077839206725 2.2434449278308 2.1107968009532 2.1893745809562 2.1301627699174 2.0355932927379 2.0593424721822 2.229557241147 2.1916416282766 1.5886739009906 2.2210701962594 2.0533250492455 2.1771151772804 2.2665317766221 2.1167686199233 2.2140997252197 1.9860527669054 1.8833258704898 1.435096609314 2.2520602130922 2.1179290282452 2.2060226406785 2.1466307065473 2.0483070224938 2.0936781873786 2.0895431656222 2.0960229529186 2.0420002554215 2.0482048174597 2.0219889907723 1.8592019546586 2.2058418109461 2.0608485898129 2.1567703694494 2.2387224777743 2.0667683175859 2.1883654967725 2.229659788019 1.9327357232461 2.171464082993 1.863261113101 2.0550970590784 1.7429647161277 1.6240145193812 1.6530418742413 1.2594858058138 1.9380164895317 1.9960925431028 1.9444387540146 1.7778973074707 2.036580176 1.6762819112296 2.074452666297 1.70305916266 1.3817857179196 1.5439869231707 1.5431300907777 1.816802885188 1.4142517518998 1.5638989689108 1.7076755666225 1.6016200644287 1.7628499093943 1.5303172515514 1.9960699108473 1.4487900054806 1.8311354200166 1.6754309518562 1.9011241384994 1.885107428877 1.9715244671505 1.8178292968233 0.98892658473296 1.7165878658815 2.0748172603282 1.7159576200616 1.7996801406271 1.6204296640577 1.7495817381018 1.66193546452 1.9719934533821 1.7373868643944 1.8023868954929 1.3291207819771 1.9768471762076 1.3707701702071 1.5997193945357 1.5274561257538 1.9179629138456 1.9504021385335 1.9103399292524 1.7941112894849 1.8601014062845 1.8318989050145 1.6004956045426 1.9153047122302 1.7533741197011 1.9809875770899 1.8208849457416 1.8341221120464 1.6009234455377 1.565810448855 1.7581031624326 0.82943078309719 1.6175841095954 1.6456479694342 1.805507011828 1.0123112036888 1.7923320885642 1.0883506828144 1.985642387651 1.6889215925888 1.3642352867429 1.7565970692623 1.2692765268078 1.3651916012623 0.71666694120655 1.0041484326062 1.3496843054463 1.7842260866093 0.48607998601765 1.6567176420801 1.1832265425213 0.92466845751219 0.43004608184373 1.0708577696842 1.2583166293803 0.73555760628629 0.51272269935488 1.4179414441215 1.3824993837079 1.349077553739 1.9983259594929 1.7837507575377 1.6704836327337 1.4900368661448 1.5034694523341 1.7912777566453 1.9588584703396 1.2858770780219 1.4693288795687 1.5362019244873 1.7708014257027 1.0095603136737 1.6159690955697 1.7928661602859 0.87032120898508 1.090769035329 1.2759450164688 1.0087143015277 1.4619385377365 1.8067317720379 0.8024729353565 1.4520561891345 1.6838513538149 1.578611833773 1.4968851452543 1.8340995805874 1.1899282130449 1.0207307684036 2.002343764571 1.3960583281191 1.4045583557807 1.3917993594243 1.4415801617914 1.5559281673384 1.6218466750349 1.6456650768824 1.4134447207164 1.34047583735 1.5957385547556 1.4235664852885 1.5770743939518 1.4929751482122 1.5423711964682 1.8650914915082 1.4201429361897 1.3822292374921 1.2250700632424 1.1574536363428 1.6206749222205 1.4103256584927 1.5602763250849 1.7508820007423 1.897722856125 1.4256631656596 1.0809900809324 1.3467112282718 1.291968227697 1.0650217155536 1.4078822177903 0.98194947446015 1.6917197570792 1.0356027550878 1.6079840948569 1.5336402148119 1.9698379911846 1.6942975192118 0.97103331939384 1.831121408854 1.6928314382115 1.5203375046292 0.3936848197008 0.57948117564202 1.397748647519 0.9333591672277 1.475084207204 1.0364887208597 1.4009910963593 1.566282184456 1.9232829512871 0.88445584634691 1.4634259881077 1.1880219582091 1.2021050433569 1.4567095851388 1.3842494887175 1.3549651905203 1.3121267982073 1.4871438920767 1.3504701256521 1.5074425385883 1.1223683381338 1.2150517620162 1.2168134767862 1.4624756457086 1.507057138842 1.267667044522 1.6406582787426 1.4554213196664 1.3697046247318 1.5765100864737 1.3680613365674 1.5345089082496 1.2433260946153 1.6203722187941 1.4902114603415 1.6207014407741 1.3987465482292 1.4707463851544 1.5883022176459 1.3037534476828 2.0235625500662 1.4674872474482 0.91567086056897 1.4750596562289 1.3917305982941 1.7012287797793 1.2372042583953 1.0026051828212 1.1519845717818 0.89345988605802 1.8175436427758 1.0275545510621 0.93794921001062 1.4339735906629 1.3968075670557 1.4210316594835 1.8967239022815 1.5301804843018 1.6769155118657 1.438958749767 2.032382789447 1.820436983433 1.450571191602 1.3801325729924 1.4407839917573 1.0223474743635 1.440628988148 1.5199132719428 1.5365748576676 1.445107838368 1.4225020911568 1.5164610936991 1.6912265324097 1.8967527455916 1.4493150557872 1.3831400179243 1.5009708045305 1.481285772599 1.7372538076529 1.7086713856534 1.2246264497637 1.6273757123408 1.4982326381312 1.2397622153266 1.2186595267286 1.1884095686758 1.1427939658354 1.1987201592239 1.5241052544621 1.4681022984418 1.5252508051247 1.5171267794422 0.97082344209479 0.83104648888703 0.91284826235801 0.90081525240898 1.3330172073142 0.92261583264249 1.2493213767199 1.2984277751128 1.2561791193484 1.4506558025535 1.2330073876495 1.196654455658 1.132344197821 1.1889250026845 1.2067938352536 0.70374017994502 1.1670977216002 1.0453307454572 1.2504336080742 1.3606420636392 1.0112129887451 0.67767160298474 1.1379347012644 1.1725259460465 1.0183171641524 0.98790578181105 0.85379041982407 0.859402999895 0.96610648209682 0.74091862289669 0.83641997799532 1.4429914763806 1.234407944183 1.1373426493295 1.4074233150252 0.74831952396441 0.92476920517089 0.97593847228324 0.7856225935872 0.83493187770196 0.8364044438117 0.77562671979918 0.6990734837155 0.98030235011407 0.87757642071572 0.93501175124864 1.5271347625939 1.1656125112705 1.6751255466084 0.71509117346478 1.7018229475723 1.3788580630473 1.1185341182285 1.0648338917616 1.6502633413613 1.4820855091017 1.4393051286872 1.5412013194499 0.53116029126651 0.74712038088781 1.4495252625072 1.6341593827954 1.6494461150406 1.3689899570644 0.95013714925982 1.4036005872616 1.8368778556284 1.5554695621786 1.6852832098433 1.3882811732611 1.4481767960215 1.3820301758689 1.4262309923484 1.3628412869062 1.0550034560129 0.85312696629811 1.4342567095961 1.9216141104239 1.5119810998834 1.5005355900049 1.4498150202922 1.1608851887171 0.53148928115489 1.1975257956698 1.393609203488 1.3500272185128 1.4943640287579 0.85464978196843 1.4793865380604 1.4443115547294 1.4765552517787 1.4255022714445 1.3583473207135 1.4322508382289 1.4076920077283 1.4301705759547 1.4691141579317 1.4723029329781 1.3951536594011 0.63908515851257 1.4627997964941 1.3986407114367 1.462709636701 1.4494103232969 1.4638576051374 0.86917091255688 1.4721037041352 1.443001079219 1.4778797971813 1.4408547686057 1.4800023942763 1.4438552555431 1.485813943747 0.9328467989065 1.3981234034006 1.3840413627642 1.3926169823326 1.4255693083964 0.75280684699955 0.88063504304346 1.4630348636098 1.4513288611306 0.90989602703704 0.94727026247734 0.89238984010626 0.83893749578892 1.4325608767524 1.386353411999 1.4716064320277 1.4848274034757 1.4078939894581 1.4955552588449 0.95507806845616 1.4117604141295 1.6327582621527 1.5593188925041 1.4854441829791 0.91396074219844 1.5046956941344 1.4793500075623 1.5084675745059 1.4177799803627 0.8474356585065 0.84912829524534 0.86169389813426 0.92713331293491 0.79861042742546 0.96194204376877 0.79028849133582 0.84331219117636 0.79860336371638 0.77558384249508 0.84884139314439 0.88141321133733 0.76316643017086 0.76129317228403 0.82341000521201 0.91036305760512 0.80190826522923 0.80922925560318 0.72736965650501 0.66692890717391 0.78192284874239 0.80438064481052 0.69974867241661 0.69680107933339 0.78504119703975 0.87600526513297 0.80085653347641 0.78036689662006 0.86421200149374 0.75548775492547 0.77035563539447 0.98846650626943 0.75955390018917 0.73287879255984 0.73927072010231 0.88996211260299 0.65073084231459 0.74944688422732 0.70490869590649 0.71410739420249 0.98734280649878 1.5091749095282 0.7875300505968 0.69444514315204 0.6267843727243 0.66751649578672 0.74605659893821 0.69196559638881 0.67724979083969 0.69174188975945 0.63265522892783 0.94790837434734 0.61878133803159 0.56486278910568 0.71263931656706 0.66836723617519 0.80988799114947 0.97171678720708 0.80681965530271 0.78548874601166 0.7195124214593 0.65575211665022 0.65353863417813 0.67356048573485 0.62148095135137 0.65443582931873 0.66602810456418 0.60824127963905 0.72858462848963 0.67361242854327 0.59538473989826 0.53050913602289 0.84972228582374 0.70370811588033 0.60309337988946 0.68955583140688 0.9292416335177 0.93103789033167 0.87280860129121 0.74921533087445 0.59481220764388 0.65029798525526 0.8361099509893 0.76112391694404 0.83714322593166 0.90378868742032 0.77510896949851 0.69581412214565 0.86425006150661 0.81052507181826 0.83977591597517 0.74752226846311 1.4135688773004 1.3858131610587 0.58024693475959 1.0437387900169 0.55762181593003 1.0640146388201 1.0589582524561 0.58126531301489 1.0329544570958 0.83572252033778 1.0378269419277 0.94073499781437 0.99161216075703 0.82380811965508 1.0974030603587 0.98500838662418 0.98113810744231 0.91848945857613 0.99153864019031 0.61739177469332 1.0729280538121 1.0672614409976 0.54448788085604 0.66103365116823 0.9363333203889 0.93293146598486 1.2184024801946 1.101705454709 1.1039685904475 1.0310788359053 0.67628156670566 0.61926518514554 1.052280382026 0.60774153288143 0.59957556335374 0.68111620163254 1.0705821321209 1.0687808305608 1.129502950986 1.1263881524042 1.1393833984107 0.78665736773567 1.1552140299687 1.0510980195772 1.1136149871 0.55887333428391 0.58359081606337 0.6513691180509 0.64743175738375 0.54909012856466 1.0295615704253 0.66288187950755 0.65783962981257 0.52137157876814 0.49142697528959 0.53127811837851 0.50205884286874 0.63792960465227 0.52290527545096 0.5281347640752 0.44696594905522 0.56422174384571 0.50282003324985 0.55757915897304 0.42084303291068 0.5856856650725 0.50450417213686 0.5427825474119 0.5558051433486 0.48067515023763 0.37538193032806 0.53079374658799 0.49110571757982 0.60349592633849 0.46108461940177 0.38381569075951 0.52352793042113 0.63762216473312 0.44041213389426 0.49118128455706 0.59178443038135 0.70430189173991 0.40338562197885 0.30500803727302 0.50158843080208 0.62510711289625 0.5953281717484 1.2623825789422 0.75524867418989 0.77962980305426 0.47797213871937 0.35170855086949 0.45651731498784 0.44168467037729 1.465200508481 0.48781232696603 0.44519963719163 0.2548079298372 0.42779010632213 0.4498318342338 0.58070164509854 0.40606046232419 0.37949708517179 0.50329683787081 0.34176895054892 0.6368310077983 0.53114136344594 0.62278875739496 0.4887633387587 0.61037396738547 0.37384466359098 0.30983661178771 0.37477970460261 0.53483778099437 0.44055503096977 0.40396041581675 -0.14645258882474 0.39668265411222 0.30583280292166 0.27504076072942 -0.10324908227146 0.16618463967161 1.0489157541327 0.83682057464754 0.62961064492621 0.86172292233452 0.56676501763572 0.7099184506672 0.63390468184106 0.81027623864039 1.191782328709 1.2400596685174 1.6579044526783 1.5159613877924 1.5115524983407 0.94330661468321 1.5129543381961 1.4546521581606 1.4918067917561 0.99968694953076 0.89231020781562 0.92188359911412 0.89764551236328 0.97801593243323 1.3975540070662 1.450483919165 1.4189322290678 1.41727540376 0.97649500821116 0.78846230949474 0.88771949429362 0.93087386099273 0.83839581619101 0.84660953545578 0.71510578711739 0.71907246262934 0.82080612504488 0.91170090212642 0.75608623951734 0.85719857482255 0.8511948318325 0.81649274571852 0.72227954694646 0.75707029705387 0.77930992950043 0.6903124556601 0.75938525834417 0.74097737160178 0.65029856548337 0.64579408981916 0.8020208988962 0.7230271736892 0.59929263082547 0.6633703055758 0.66067594454014 0.69983695723246 0.6213198341031 0.53494400286012 0.62252621146581 0.61797035185939 0.65921341257495 0.53537653200895 0.6