# vtk DataFile Version 3.0
d-2__ created by libgimli-v1.5.0-1-g5991b6ac
ASCII
DATASET UNSTRUCTURED_GRID
POINTS 3065 double
14.646647106361	10.075660810886	0
14.704832811816	9.9744824778853	0
14.741572761215	10.143570688214	0
7.2181179570912	12.323267801616	0
6.9022853070009	12.159878277929	0
7.188568129403	11.864968865302	0
12.573766225573	8.2541691958959	0
12.179090385116	7.8396649872294	0
12.486344232856	7.7791041952802	0
10.909490913954	12.100065284392	0
11.157527929117	12.134706706046	0
10.807865018668	12.328963878518	0
10.246630703596	12.451261426896	0
10.370786380608	12.571785344107	0
10.283370652996	12.620349637225	0
23.486823884586	4.2589561787297	0
23.872774184789	4.3331786567402	0
23.693453371076	4.6788038393608	0
9.4017034496321	12.989518397958	0
9.459889155087	12.888340064957	0
9.4966291044861	13.057428275285	0
8.6528831969526	9.1661723501876	0
9.0889129509339	9.1546198128334	0
9.0172223973042	9.5848707535605	0
4.95	14.894536113346	0
4.9002967662305	14.698789777549	0
5.05	14.834347813918	0
7.8357302798552	13.980149844525	0
7.7483145522431	14.028714137643	0
7.7115746028439	13.859625927314	0
7.9373561751407	13.751251250399	0
9.2631921819019	12.842543338384	0
9.0547266763919	13.085654315995	0
8.8463136869378	12.696007878209	0
6.9615730037337	14.465792775704	0
6.9945996683525	14.319328169198	0
7.136404458958	14.368664189468	0
21.8222466978	6.2098629456668	0
21.734830970188	6.2584272387846	0
21.698091020789	6.0893390284563	0
9.5840448320983	13.008863982168	0
20.073932145557	7.181148808024	0
19.986516417945	7.2297131011419	0
19.949776468545	7.0606248908135	0
8.1805694002704	13.571297247173	0
8.3602246455282	13.688764085818	0
8.1853931903038	13.785892672053	0
20.765748039212	6.6761602926357	0
20.627236771482	6.5291852330617	0
20.823933744667	6.5749819596349	0
8.5857318789655	13.373982996136	0
8.5275461735105	13.475161329137	0
8.3890349057803	13.328186269563	0
9.2343819216497	13.203121154639	0
9.0595504664254	13.300249740875	0
10.311662072528	12.260060065814	0
10.363276453366	12.455311173661	0
20.948089421678	6.6955058768454	0
21.049715316964	6.4666072827198	0
7.6608988246309	14.077278430761	0
7.653388897389	13.960804260315	0
28.908739718026	5	0
28.508739718026	5	0
28.708739718026	4.8492605261212	0
13.77248983024	10.561303742065	0
13.830675535695	10.460125409064	0
13.867415485094	10.629213619392	0
12.119100932851	11.60049948175	0
12.082360983452	11.431411271421	0
12.206516660463	11.551935188632	0
27.358739718026	4.8945361133462	0
27.309036484257	4.6987897775495	0
27.458739718026	4.8343478139176	0
22.57224829691	5.6036960972777	0
22.798029869207	5.4953214203625	0
22.696403973921	5.7242200144881	0
13.080673936584	11.066292257453	0
12.956518259573	10.945768340243	0
13.18229983187	10.837393663327	0
28.458739718026	4.8343478139176	0
28.408739718026	5	0
12.308142555748	11.323036594506	0
22.547801874951	5.2633883138599	0
13.63397856251	10.414328682491	0
12.024175277997	11.532589604422	0
12.031685205239	11.649063774867	0
15.703145764949	9.6093634639172	0
15.615730037337	9.657927757035	0
15.578990087938	9.4888395467067	0
12.444587677104	9.0315078187863	0
12.75	9.25	0
12.46875	9.40625	0
10.45820210822	12.523221050989	0
14.654157033603	10.192134981332	0
17.902749122926	8.2149218349628	0
18.150786138089	8.249563256617	0
17.801123227641	8.4438204290885	0
11.332359384341	12.03757811981	0
11.244943656729	12.086142412928	0
11.237433729487	11.969668242483	0
17.130607666996	8.4717569577762	0
17.327304640181	8.5175536843494	0
17.269118934726	8.6187320173503	0
12.018062834866	9.3144627641309	0
16.96875	6.90625	0
16.518062834866	6.8144627641309	0
16.944587677104	6.5315078187863	0
12.759821286388	10.899971613669	0
12.551355780878	11.14308259128	0
12.342942791424	10.753436153495	0
16.577303041071	9.1237205327386	0
16.453147364059	9.0031966155281	0
16.678928936356	8.8948219386129	0
21.923872593085	5.9809643515411	0
14.508135838631	9.9286857513121	0
8.7098875559768	13.494506913346	0
8.6224718283646	13.543071206464	0
7.5190940340254	14.02794241049	0
-0.24940646753892	14.834347813918	0
0.05	14.834347813918	0
0	15	0
2.3	15	0
2.2	14.888006064741	0
2.4	14.810067208388	0
11.507190839566	11.940449533575	0
11.36538604896	11.891113513304	0
11.502367049532	11.725854108695	0
0.1	15	0
0.3	14.849260526121	0
0.5	15	0
-0.95957299032574	12.742247653798	0
-0.63660515661073	12.736198774421	0
-0.72105850144488	13.237141247116	0
2.9	15	0
2.7	14.849260526121	0
2.95	14.834347813918	0
1.2	14.888006064741	0
1.3	15	0
1.1	15	0
1.9	15	0
1.95	14.834347813918	0
2	15	0
23.155770102009	4.4707815868157	0
23.398627607885	4.6419549088128	0
22.971047224781	4.718656217856	0
13.779999757482	10.67777791251	0
10.633033563444	12.426092464753	0
10.491228772839	12.376756444483	0
10.628209773411	12.211497039873	0
2.0997032337695	14.698789777549	0
2.05	14.894536113346	0
8.8115134512622	13.265608319221	0
7.6871281808847	13.519318143897	0
3.05	14.894536113346	0
3	15	0
1.05	14.894536113346	0
1	15	0
25.508739718026	5	0
25.458739718026	4.8945361133462	0
25.608739718026	4.888006064741	0
0.95	14.834347813918	0
0.9	15	0
23.708017310135	5.0679061559452	0
23.57570494199	5.2584272387846	0
23.492391392804	5.1534065041647	0
6.5387045333462	14.528279940285	0
6.7500015991102	14.393833151611	0
6.7867415485094	14.562921361939	0
7.4860673694066	14.174407016996	0
7.3112359141823	14.271535603232	0
7.3148706664546	14.058847515876	0
6.0874157276122	14.951435706882	0
6	15	0
5.95	14.834347813918	0
13.954831212706	10.580649326274	0
7.5148776296588	13.813829200741	0
11.889880414633	11.599727754597	0
6.8666473488796	14.397882898376	0
6.8741572761215	14.514357068821	0
1.4	14.810067208388	0
3.95	14.894536113346	0
4.05	14.834347813918	0
4	15	0
3.1	15	0
12.993258208972	11.114856550571	0
12.898332554118	11.046946673243	0
12.90584248136	11.163420843689	0
3.9	15	0
4.1	15	0
2.1	15	0
5.1	15	0
5	15	0
7.1315806689246	14.154068764588	0
5.9	15	0
5.3	14.849260526121	0
4.6070433069999	14.368240644588	0
4.6	14.810067208388	0
5.1938980518111	14.524993056905	0
1.0997032337695	14.698789777549	0
25.708739718026	5	0
4.7	15	0
4.5	15	0
24.408739718026	5	0
24.316180298466	5.0287141376427	0
24.321832839145	4.8833962425865	0
24.708739718026	4.8492605261212	0
24.508739718026	5	0
24.458739718026	4.8343478139176	0
23.483145522431	5.2871413764274	0
11.573663228844	6.6878504141764	0
11.783228215591	6.953244789404	0
11.498511972069	7.1356956560705	0
25.308739718026	5	0
24.908739718026	5	0
25.108739718026	4.8492605261212	0
25.408739718026	5	0
25.358739718026	4.8343478139176	0
15.520804382483	9.5900178797075	0
15.528314309725	9.7064920501529	0
25.921540276389	4.4709363375124	0
26.277022110672	4.3098125374061	0
26.309036484257	4.6987897775495	0
21.069293459246	4.0184782266431	0
21.444587677104	4.0315078187863	0
21.46875	4.40625	0
25.214841666215	4.524993056905	0
25.508442951795	4.6987897775495	0
23.395729794819	5.3357056695452	0
23.358989845419	5.1666174592169	0
29.8125	2.6258505226016	0
30	3	0
29.625	3	0
5.8122409423352	10.291228465074	0
5.9889649985263	10.545789285321	0
5.5715926789368	10.688360310892	0
12.278524372398	8.4033099465931	0
12.266749266227	8.7424709281467	0
11.71080923903	8.5533847165846	0
26.458739718026	4.8343478139176	0
26.358739718026	4.8945361133462	0
23.147692779655	5.301064247891	0
23.04606688437	5.5299628420167	0
11.120787979718	11.965618495718	0
26.408739718026	5	0
26.508739718026	5	0
26.708739718026	4.8492605261212	0
9.409213376874	13.105992568403	0
30.458635160201	3.8690920654536	0
30.669330384347	4.1196162860905	0
30.364109258215	4.2441307961306	0
28.358739718026	4.8945361133462	0
27.408739718026	5	0
27.508739718026	5	0
25.6875	2.4642195584136	0
25.771866335589	2.1927504712561	0
26.053487503597	2.1539862920131	0
25.384151503975	2.7152844425934	0
25.6875	2.76491822766	0
25.5	3	0
9.2674085862685	13.056656548133	0
27.708739718026	4.8492605261212	0
28.308739718026	5	0
15.382293114753	9.4430428201335	0
29.308739718026	5	0
29.358739718026	4.8343478139176	0
29.408739718026	5	0
1.8061019481889	14.524993056905	0
29.658146185565	4.8343478139176	0
1.7	14.849260526121	0
1.5	15	0
30.090078193556	3.9711909286582	0
15.173827609243	9.6861537977444	0
15.3534828545	9.8036206363886	0
15.178651399276	9.9007492226244	0
18.23069193846	8.0845247930538	0
18.238201865702	8.2009989634992	0
18.11404618869	8.0804750462887	0
4.8	14.888006064741	0
4.9	15	0
16.402471585846	9.2208491189743	0
16.394961658604	9.1043749485289	0
16.489887313458	9.1722848258564	0
6.1791038580454	14.704649136022	0
17.36404458958	8.6866418946778	0
17.451460317192	8.6380776015599	0
3.6	14.810067208388	0
3.7	15	0
3.5	15	0
16.922142161486	8.7148679353872	0
16.4287009421	8.6628888321103	0
17.302858218222	8.1772459009316	0
17.553086212478	8.4091790074343	0
14.056457107991	10.351750732149	0
14.828988488828	10.095006395096	0
5.5	15	0
5.7	14.849260526121	0
21.1875	4.5625	0
20.90625	4.71875	0
20.882087677104	4.3440078187863	0
6.8150329680421	14.202631790528	0
6.4739761191302	14.193291511538	0
15.804771660235	9.3804648697915	0
14.930614384113	9.8661078009702	0
4.3	14.849260526121	0
19.199774869435	7.6667917392027	0
19.112359141823	7.7153560323205	0
19.075619192424	7.5462678219922	0
9.9706052236163	12.250719786823	0
10.035333637832	12.585708215571	0
20.860673694066	6.7440701699633	0
20.773257966454	6.7926344630811	0
9.6856707273838	12.779965388042	0
-0.43250979015094	13.369587523725	0
-0.85662454898514	13.581460773951	0
22.514062591455	5.7048744302785	0
22.375551323725	5.5578993707045	0
20.742913400511	4.047377368749	0
21.292928542093	6.286653279494	0
21.472583787351	6.4041201181382	0
21.297752332127	6.5012487043739	0
24.1875	2.7176993931111	0
23.626112873365	2.548251847651	0
24.1875	2.3788043021908	0
21.958672828761	5.41136391053	0
22.167085818215	5.8010103483154	0
21.673644598829	5.7490312450385	0
20.175558040842	6.9522502138984	0
19.891590763091	7.1618032238144	0
19.899100690332	7.2782773942597	0
19.017433486969	7.647446154993	0
18.878922219239	7.500471095419	0
18.325617593314	8.1524346703813	0
6.2866035579579	13.872661794752	0
6.1724083866651	13.36768415665	0
[...]
CELL_DATA 5846
SCALARS Coverage double 1
LOOKUP_TABLE default
2.4148552929236 0.90320850970176 0.80094795986642 2.3025481104371 2.8650882392353 1.4082532096184 2.4263106068897 0.69997393372885 1.8859251175401 2.8147144248127 2.2698087042557 1.9695347903481 2.3184255485633 2.8293227669573 2.8659002876911 2.8494556042088 2.1972710842948 1.9186983569143 1.9910753547326 2.2140058947736 2.0173583338946 2.2626357364107 2.845406383478 2.0247338386133 2.4540395374251 2.8974959734757 1.6562522565245 2.2369738448456 2.3540739549278 2.6965282016452 2.3409923616854 1.9930608626848 2.0492108331657 2.9102810752437 2.8953125172869 1.0340147053735 2.3467997584642 2.9126845547515 2.9540246880007 2.3052046182511 2.9236276449768 2.0092336691579 0.99511771887062 1.0032751104696 2.43919940366 1.9999570747075 2.3361532622034 2.2501307861851 2.0390754223668 2.8429941445789 2.381069745112 1.5206080556183 2.0729955642327 2.270987329625 1.8447526731477 1.8151604438546 2.4165560612307 0.22223599932108 2.1908854900693 2.1661022934725 2.7307409849301 1.4270785643872 2.9566408695665 2.2687567733323 1.7710141607876 2.1650078493166 2.0217440648427 2.2603168470774 2.1399641666029 2.698283217938 2.2808275326018 2.6919511826904 2.3067960114457 2.2651180478121 2.167681835904 2.7669908820807 2.5189719561582 2.931784071067 1.9715640899399 2.4463282030707 2.2773019728755 2.0140457496888 2.2595188291813 2.7750666245399 2.4741538849786 2.9364018293081 2.8136411856074 2.7566516819771 2.4483090859362 2.2154938201573 2.7821062930042 2.1766303543018 2.5610538011306 2.2156302458684 1.8463130137507 1.9927943334762 1.6211751030239 2.2764202934805 2.8329599919646 2.3868778595395 2.2243705241464 2.0780292321783 2.1015814950591 2.8634151921919 2.2419837837569 2.8917635732063 0.60982641142544 2.123254053919 2.724395355677 2.9324775166225 1.5397817211899 0.91140061487515 1.7247753886024 2.85673979349 2.7704786793717 0.27611232407715 1.9846976191565 0.62217520484577 2.1900085496165 0.85290020105697 1.7213380617723 2.1990173962948 2.3742647467402 2.1922546432372 2.1398242509267 2.8825872605756 0.54314365242611 2.166526616482 2.7082029014513 0.53333717507785 0.6727504933018 2.3816676716239 2.2866353171211 2.1105756184556 2.6973214978706 2.0223458048866 2.8743700145256 2.2763653189921 1.7179407104774 1.5560917476639 2.112544208776 0.53008090180003 2.9139447880828 2.2629216344251 2.1162247818616 2.4454401374393 2.2984076239934 2.8349716899789 2.9415059879285 2.8977343663433 2.0777092066735 2.7349206431207 2.8912269222565 2.0797038928629 2.0911974707691 2.2354958046672 2.1057546093244 2.4109576302427 2.8094662406384 2.1764601575932 2.3639723918722 2.9250976107931 2.3042283369963 2.1548629363323 0.99849471848212 1.8860943851587 2.3990470029345 1.843964695823 2.3449395771129 2.3643901407826 2.8550708241957 2.1858083008004 2.8599899424086 2.1091187974655 2.8691856249393 2.8332689590125 2.3157252595106 0.4007900767836 1.8809010362806 0.86528397337461 2.1428344402964 0.6315132257614 1.7966657364334 2.285401658613 2.8941266308829 2.0609233651955 1.9680840163471 2.906176282041 2.4102525761439 1.2845543261166 2.3154000936217 2.2599161062053 2.9048039706617 2.0441708424683 2.3556185386692 2.2964858223574 1.6003878690388 2.8626737839366 2.3250761260632 2.3494841439742 0.37808254476971 2.258097923547 1.9106583215241 2.4279574881486 2.2189233095425 1.6321412568678 1.5047759379195 2.7165497356593 1.5123241276835 2.7161526125882 2.7354423917021 2.8853417690086 2.330795452513 1.7757420567457 1.9462706578944 2.9383907273317 2.3978093088927 2.432973645814 2.1085631011245 2.4469345557909 2.2741763775243 2.3426937476528 2.1644797904615 2.3645754967611 2.1775221454501 2.4504561221226 2.2760823367733 2.4314906538938 2.1031794578831 1.8266378230854 2.096488436062 2.2439709564538 2.2802669056877 2.81648372636 2.8458659101541 2.858773396309 2.3131135725768 2.136339317711 1.9400901974063 2.1735637245889 1.9899312184714 1.9594123723098 2.0858899220601 2.1983377620316 2.3795235496129 2.38184673594 2.4246073124143 2.4211776480349 2.2387396115318 2.3047308907739 2.112240942276 2.3291195649684 2.0104638705134 2.2911884195736 1.9565385520362 2.032636333195 2.057422106502 2.334558606318 2.4098909696555 2.2497353858859 1.8666181573507 0.66061864822135 1.9258457266235 2.1598639148869 1.77109371564 1.9527977904399 2.3417352432787 1.7639470629045 2.1160212011467 1.8221934701411 2.4580241632981 2.0164378642301 2.1110652791319 2.4627029503997 2.4751323740927 1.4365946670712 2.0344479882719 2.3775563783559 1.9015776352447 2.0770140832945 2.402009704744 1.8470624145183 2.10596006734 2.4799379462561 1.0535844812848 1.9424874058433 2.4657290837774 1.8684188525422 1.8177773485301 2.1704496015284 0.74486451671152 1.8681319810095 2.2069429231576 0.91538934089363 1.9632713957036 2.2278842092372 2.4536747258996 2.1523041301223 1.9865312729853 2.3453811928179 2.031822154166 2.2684268630543 2.3658319261279 2.3286568271393 0.7658680091294 2.1197008499172 2.3597597006846 2.3524764100186 2.3998580283118 1.9269963057422 2.1581071976499 2.0259119722387 2.2463751513383 1.919928809134 1.622618168897 2.2001124409122 2.2255968561879 1.9124339039959 2.160828206771 2.2375750134475 2.0568019612704 2.1568426363404 2.0585158557983 2.0090037196444 2.0219297140307 2.1912762551725 2.2297206555873 2.3416383467582 1.92303110849 1.5543571853156 2.2356028724663 2.3498999352031 2.1299888133321 2.2482641652816 1.2821529328618 1.5641563746344 2.139971213172 2.2576768219579 2.2315415108577 2.3442664551006 1.8550402066714 0.90650945298919 1.9000208043267 2.3241910994459 2.0597666564175 1.9483069679768 2.0889201319 2.4168356398665 1.3381871743924 1.9950550260574 2.1979585589055 2.1982904782301 2.3109103183416 2.0747810605764 2.2065531623314 2.0981693579852 2.4396527264367 1.979943144571 2.0478121912365 2.1108974399828 2.036253698737 2.2138673804816 2.3249295629341 1.8829574928881 2.183722860013 2.1746962380747 1.4379007355673 2.2293054356355 1.4164358506625 2.2150267600238 2.3211701088786 2.1014481933069 2.2222139508447 2.0566618205916 2.1174416064338 1.9050052236246 2.2792205957688 2.1465347741225 2.2314031028735 2.0640183723547 1.9639949955314 2.068028069519 2.006719478806 1.5258761347074 2.4004903166201 1.8885566876291 2.4202212044966 0.86949350529046 2.1526130968924 2.2505764626213 1.8893484462635 2.1950306828414 2.2536067586767 1.9893489729964 1.5536842420266 2.0878044331506 1.8597593180614 2.083437191657 1.9805133613368 2.0331821330358 2.1819543894922 1.2844140832788 2.2114045397417 1.8247125887686 1.8431862401265 1.1828596421105 1.9795364129654 2.3029415054886 2.2031286841314 2.0557481827088 1.7934104874402 2.1346826746449 1.9689084573956 2.2855417960911 1.9537204177678 2.2860410905764 1.9757309064267 2.301318004177 1.8811945923671 2.1869309733528 1.7963391255597 2.2063086610363 1.9713121586913 2.3066493761485 1.9684523758581 2.2918232501413 1.6163733569969 1.9661640180814 1.6775518429098 2.0110572411909 1.9468702908079 2.26823913222 1.8388889130755 2.1415796907474 1.8534962703547 2.1718439059913 2.2084604898383 2.2430814779473 1.9091192099058 1.9998906755157 1.9360751273729 2.294776214587 2.246139409146 1.7885841838927 2.2220832253263 1.7008425464851 2.108378165692 1.8387310703557 1.5728950060564 2.1416031828229 1.8286640916316 2.0803635812632 1.8283622229286 2.1285571284012 2.0429905776012 1.8962078596108 1.8614452878696 2.1356822510479 2.0013653457627 2.0238728019324 1.4863814272082 1.8484343114956 1.8137261957222 1.8169510015756 1.7979698134911 1.941434580928 2.3216912356841 2.1613403264935 1.8317981154819 1.8160448244465 2.2389474750542 2.0372874190681 1.8655076083335 1.9379909985168 2.3259646901354 2.1883537182732 2.0612822198121 1.0950279560512 1.197684811417 1.1488407396326 1.0651310123632 2.1962974533103 2.0845769900013 1.928672397086 2.2754914975154 2.1698261344316 2.0110745109282 2.249397049333 2.0822453598239 2.1878877048343 2.0263028653105 1.9410918603545 1.5440571709567 2.109128930604 1.9539133299758 2.0366984470588 2.0302750489809 1.9877462448411 1.8186192713296 1.9862443632337 1.8645266492699 1.9236856306093 2.2347346419207 2.135848835969 2.1773439248634 2.2468402821322 2.124014395019 2.1826024980928 2.1422019162323 2.0544070336737 2.0788652579737 2.1755603101708 1.9045798513433 2.1020859752785 2.2633357992866 2.102500938883 2.1905474117781 1.9179614426767 1.8578082630797 1.8348610393783 1.9576077229823 1.8927873684188 1.8912433942058 2.2279176536185 2.1416241274306 1.9901454317212 2.2275644127506 2.1079997991968 2.1575269943317 2.122044508918 2.0182514082258 2.0362102176889 2.2044313772883 2.1621694521784 1.6171422322261 2.1944554989703 2.0218036154501 2.1301869913491 2.2668287599814 2.0986367146724 2.1894675637878 1.9755757633409 1.8685202094474 1.4235952071912 2.2384005512613 2.1161022103315 2.1742178483526 2.1325123487874 2.0329912393268 2.0651279093342 2.0977690549442 2.0709255179579 2.0210802221133 2.0228429516766 1.9918049110078 1.8361246936203 2.1862336014025 2.0385033113564 2.12460056272 2.227228103243 2.048557237839 2.1581824392406 2.2093797570511 1.9044132624223 2.1418954650293 1.8545120751188 2.0192371269358 1.7297271076579 1.6301489018076 1.6763199325891 1.3074505772003 1.9221345540251 1.9780373982465 1.9296473836232 1.7744276197308 2.0195839547702 1.6979466742202 2.0510123050119 1.69270863117 1.4068174694975 1.5735991215229 1.5790200933818 1.8154372150758 1.3607888381665 1.5974361373284 1.7058271305604 1.6222499620217 1.7505064607143 1.522388612569 1.9753209525192 1.3566935867363 1.81859598895 1.6593056700835 1.881105998941 1.8691637361138 1.9514277450692 1.8133390623667 1.0021967317894 1.7126651902728 2.0559632111396 1.7314386736984 1.8020785361327 1.6590667977114 1.7658351963808 1.6630361287358 1.9578916481427 1.7468399309693 1.7866949680094 1.2501929750432 1.9675580582472 1.4009637957459 1.6052121036643 1.5559474053324 1.9075245165457 1.9266180690855 1.894048439919 1.8016579387435 1.8469941068807 1.8081908872546 1.63912914969 1.8979031637095 1.7632223960893 1.9618735974662 1.8286999563527 1.8427003605649 1.6029810410638 1.5707124558786 1.7609162143309 0.86352412058022 1.641893153243 1.6614079042517 1.8031159285364 1.0429097102031 1.7782660347897 1.0658233549882 1.9736131588121 1.6907969297214 1.450726103861 1.7456306535583 1.3085205400431 1.366568702769 0.74087659840023 1.034845616015 1.3863472712126 1.7673963193491 0.51900499724408 1.66450923841 1.1674837763171 0.97107412560362 0.484281765401 1.091353681741 1.2800318490267 0.77266080551241 0.48789330025631 1.4666247022426 1.4363854895783 1.3918094288522 1.9824196800663 1.7822570358532 1.6956024860192 1.3969966328138 1.4188967878869 1.7895673083306 1.9320500117622 1.2866348322567 1.518506153577 1.5659192402371 1.7807116526517 1.038288525665 1.6561610589705 1.8095349059533 0.88555785850322 1.1074415855635 1.3226206224053 1.0406482531574 1.5055232662078 1.79631904255 0.85354394261376 1.4813870180402 1.6725538472491 1.5956517324165 1.4054949164147 1.8383636963033 1.1860410531057 0.99975044607765 1.9873364922099 1.3601196572011 1.3105194155061 1.342780775899 1.3658385911372 1.6003508862164 1.6518258207055 1.653933586542 1.4353211378963 1.3653821361053 1.6026957400115 1.4058523812949 1.61401302552 1.5421665212921 1.5933829557224 1.849670301045 1.4579239201755 1.4338320211378 1.2725477485051 1.1184882921582 1.6487108891545 1.4500819375774 1.5864277416933 1.7406979369531 1.869956124836 1.449404602127 1.1399377817629 1.3608178241293 1.3115493658163 1.1012085818474 1.3503417799646 1.0047954410582 1.6941880612011 0.99404133035056 1.6392189897426 1.4433558956271 1.9467835191036 1.7153990301136 0.96988827822665 1.8387846194323 1.6812667504066 1.5421187268229 0.48823987600181 0.61250513272406 1.408903807969 0.9623978826152 1.4972472306342 1.0157799420578 1.4330609146289 1.5725689563082 1.9189108199569 0.90849434230418 1.391136364861 1.2393327292931 1.2438613260122 1.5021590528936 1.4603625569014 1.4431176730511 1.2948750161174 1.5400548779788 1.3611080400399 1.377434190717 1.1696456300223 1.1869251028969 1.2867581993679 1.5224317199011 1.4188137484714 1.1952117770243 1.662100432111 1.4989345561228 1.3394682527199 1.6066061131246 1.4016685316944 1.5727618740191 1.2878377398862 1.6506137623387 1.40222033225 1.6559498227257 1.44524175451 1.5234025893063 1.6269689921192 1.247188871771 1.9916123401199 1.5114386437752 0.94808287137386 1.3857494797884 1.376325939198 1.7240632936022 1.2727566414804 0.96585934185947 1.1900982059727 0.88972026160555 1.831949928561 1.0429900037184 0.95367863143134 1.4853145534912 1.354528673613 1.4338333189709 1.8632573802435 1.5973713525767 1.7149713194567 1.3411672092513 2.0069726292627 1.8145687698111 1.3663149092647 1.4044440725184 1.3765572276213 1.0304366196309 1.3534721690763 1.4302746550931 1.5859662256814 1.3763592775254 1.4786432171794 1.4262519503953 1.6928430856516 1.8514021868959 1.3676743328729 1.3830588664816 1.4147205675108 1.3943062814677 1.7432711493264 1.7048856891767 1.241213097792 1.653028125439 1.5412508629101 1.2146527309839 1.289724191858 1.1343952774999 1.148509538085 1.2086861234347 1.4322694618268 1.374055347442 1.4333807407803 1.4276697424949 0.97696523742606 0.85542464679112 0.93185590871901 0.92221091674823 1.4149617621143 0.94202270081435 1.300348181296 1.3857689301456 1.1899108532335 1.3340320877557 1.2989325568608 1.1444238500819 1.1520876607041 1.1520128479987 1.1633525129909 0.76580332944994 1.1182916868248 1.0459988964324 1.1934403509781 1.2583363269147 1.0185595703801 0.73833832170275 1.0930456569764 1.1697095359077 1.0332689322447 1.002522385873 0.87648954341413 0.8848041089361 0.96810667463611 0.79379972049153 0.86816402865652 1.3656536354812 1.3015111256696 1.1040734881036 1.3523829526942 0.79302047502908 0.94437700217028 0.99342299661829 0.82276707244196 0.86765633698198 0.86080956229744 0.82761298429201 0.75823705661118 0.99590175166705 0.89973625434372 0.95333792613236 1.5508489283302 1.1728715006152 1.6862119243109 0.76316589228217 1.7250770835551 1.3771578313266 1.1592028887333 1.077473313115 1.6775569276607 1.5265656196022 1.3462077372163 1.5756198662316 0.56699435611735 0.77300421458302 1.3569618544067 1.663056108966 1.6762557924793 1.3751552489258 0.98097104119586 1.3113996843609 1.8356802481609 1.5907219981971 1.7065368978812 1.3253736958864 1.3696064090141 1.3796578737689 1.4594899462292 1.269962694666 1.0645381307284 0.87117968023244 1.4906836782006 1.9101633164568 1.4249477781606 1.4118713086782 1.4638727679674 1.2007053124044 0.55166176447135 1.2481147464973 1.2973207358645 1.3518804429339 1.3646825094284 0.94677609969134 1.3638034826882 1.3288812585137 1.351066533902 1.3046871203086 1.3615792995169 1.3284690191922 1.3047572402428 1.3133007110391 1.3450991989413 1.3647875069678 1.2944411119709 0.67966543952291 1.3429276741759 1.3321030289244 1.3492993255948 1.3411185687348 1.3417634246394 0.89964087194452 1.3774024128015 1.3615311492947 1.3739591090996 1.3314577252516 1.3885630362848 1.3473136739404 1.3887485895028 0.93810669110818 1.3195321876886 1.3043694822694 1.3224065551033 1.4753358053405 0.79260963505209 0.89264522973652 1.3723690641004 1.4974312938812 0.9167706247194 0.95061392894368 0.93090842253184 0.85827105363308 1.3472002474877 1.3262201594388 1.3806018684939 1.3961601026461 1.3576218829601 1.5387049860478 0.95241737312065 1.4028643893288 1.6628810569303 1.5984368183599 1.526215629796 0.91965416857119 1.4130911877621 1.3895632927248 1.4190301147502 1.3398268521426 0.85948489231797 0.86862537139714 0.87933222027454 0.93227371506483 0.82979636706271 0.95955497473949 0.85613318021096 0.88473321247027 0.82648078491163 0.81274656612888 0.8704755615687 0.89089336444423 0.81079573841183 0.80702264108792 0.84759431681954 0.91404862294659 0.82644214028274 0.83601438103992 0.77506754037548 0.72814849952865 0.81805086566015 0.83164769309118 0.74946239950335 0.75540018421272 0.81809822613303 0.88771608738909 0.8334516941766 0.80994551519184 0.87149280227701 0.80009654252094 0.81301925041135 0.99968961816035 0.80324546624606 0.73692163567194 0.78946981771101 0.90407745816455 0.72021094821841 0.79118141176078 0.76658090632114 0.763732330583 0.98895020665153 1.4248041375376 0.83258444206332 0.74471175763684 0.68278687854643 0.72900725732337 0.7899042272569 0.75815545560444 0.73730986225146 0.74540512362109 0.70321084804172 0.95814674038553 0.68598102725447 0.63879591132865 0.7591177956604 0.72567987846415 0.84388667327142 0.97602916952761 0.86306226687364 0.83945271502412 0.76146040913896 0.72949985711273 0.71659441690219 0.7374334967127 0.67511767108511 0.71302866204228 0.71087026599438 0.67606220965528 0.77985886440574 0.71453268565969 0.64712469915021 0.6046037736853 0.85536509704502 0.74594033819321 0.62923099047267 0.67450321360353 0.93485164242928 0.93689702696279 0.91219570070007 0.798537362065 0.66249805057173 0.71402795205772 0.90643251869306 0.80492167889752 0.93929978498033 0.96926747597042 0.80349674100337 0.7377950839466 0.88659151191213 0.87317138403398 0.86220690536462 0.78925621951234 1.3184437894286 1.4142839711326 0.61318869545207 1.0027357816007 0.59703926868856 1.0963705606949 1.0721484443935 0.62179967060569 1.0518834882039 0.83579274441667 1.0253411673432 0.91673535959912 0.997896790385 0.83653845798354 1.1256557041201 0.98194557326815 0.96588059864136 0.90199538679319 0.96578010029281 0.65886272756226 1.075250337105 1.073466232634 0.57510544468016 0.70650540952391 0.95061903856206 0.93633979189976 1.2632460626777 1.0987814466113 1.0922714624711 0.99659570593577 0.7168353150179 0.66110178863832 1.020485215036 0.64595711537042 0.64234860751206 0.71530422595042 1.071806260154 1.0474241193846 1.1577777537621 1.1580515722876 1.1647243889232 0.79019838974481 1.1739343100849 1.0100559093322 1.1024954529035 0.59526182212137 0.6229367933959 0.69237337894316 0.68695314069114 0.58150831166431 0.99498168295731 0.7064459161653 0.68267382016172 0.55281899275748 0.52145684387752 0.56530690560392 0.52868392709472 0.6812777897101 0.55894384950374 0.56334287878738 0.47670603759468 0.60290926339072 0.53573265372776 0.59331639419479 0.44799606996028 0.62282587477316 0.53848511713579 0.57822349645784 0.59197777916673 0.51222025846363 0.40572281511366 0.56426965758462 0.52182578634656 0.64357757243027 0.49185990402445 0.41308281323025 0.55605818731442 0.67785316516008 0.47146794007102 0.52120779257568 0.62618601880487 0.7307575547255 0.43417584833383 0.33641037761962 0.53254119934457 0.6622917297799 0.62675179493076 1.2939555688382 0.77161534413679 0.80438103458685 0.50914991061322 0.38145016088356 0.48817825877734 0.47342506293273 1.3743581565192 0.51540185225914 0.47645891457835 0.28630519078131 0.45667492972159 0.482483545873 0.61308114799633 0.44532436601736 0.41012484823768 0.53547570745338 0.37238187346196 0.66670771889755 0.56254918504926 0.66237704581752 0.51669461144553 0.64254504810305 0.4069232242074 0.34326983617448 0.40298874434811 0.56323100383454 0.47079674482158 0.43448428685986 -0.082233151535208 0.43074986799938 0.33790951034873 0.31313222397254 -0.032404972382442 0.20452366066052 1.0623517848655 0.86169975305041 0.66224490175568 0.88794333643843 0.6052901646732 0.74345421997357 0.65863898463018 0.83054984006108 1.203082529562 1.2673209363141 1.6831716290172 1.4308723522935 1.4293353352929 0.95562154750951 1.4262321543678 1.369679964444 1.4058186049269 1.0097400335128 0.90871571452362 0.93232853103506 0.91355213371839 0.98587642816728 1.4200105949773 1.3645811911956 1.3423685055265 1.3386131661317 0.98698951938877 0.82499659826711 0.90425120196216 0.94307061854394 0.86134076790452 0.86985113462398 0.76460013332848 0.76437833770294 0.85014916913401 0.928089773423 0.79925952925816 0.87757531770204 0.87463598354546 0.84675782238993 0.76812717069301 0.80315534892437 0.81414512501106 0.74595497433989 0.80058586127961 0.78082091286765 0.71441152586782 0.70907690498264 0.83565771753245 0.77426020674218 0.66837058275714 0.72298247500159 0.72152831595501 0.75258770221088 0.68527601307026 0.60516115829385 0.68683653912513 0.68312337675077 0.72145598585942 0.60859412187399 0.6697517071672