# vtk DataFile Version 3.0
d-2__ created by libgimli-v1.5.0-1-g5991b6ac
ASCII
DATASET UNSTRUCTURED_GRID
POINTS 3056 double
16.047984885364	9.2005108665658	0
16.227640130622	9.31797770521	0
16.052808675398	9.4151062914457	0
9.6856707273838	12.779965388042	0
9.5840448320983	13.008863982168	0
9.459889155087	12.888340064957	0
9.4017034496321	12.989518397958	0
9.4966291044861	13.057428275285	0
9.409213376874	13.105992568403	0
6.9615730037337	14.465792775704	0
6.8666473488796	14.397882898376	0
6.9945996683525	14.319328169198	0
10.283370652996	12.620349637225	0
9.9337077425469	12.814606809696	0
10.035333637832	12.585708215571	0
10.370786380608	12.571785344107	0
10.246630703596	12.451261426896	0
3.2	14.888006064741	0
3.3935321886838	14.815842352641	0
3.3	15	0
10.363276453366	12.455311173661	0
3.05	14.894536113346	0
2.95	14.834347813918	0
3.0997032337695	14.698789777549	0
22.54986393823	5.4610590293129	0
22.601478319067	5.6563101371606	0
22.484832569298	5.6522603903955	0
7.8357302798552	13.980149844525	0
7.7483145522431	14.028714137643	0
7.7115746028439	13.859625927314	0
8.7098875559768	13.494506913346	0
8.6224718283646	13.543071206464	0
8.5857318789655	13.373982996136	0
21.698091020789	6.0893390284563	0
21.734830970188	6.2584272387846	0
21.639905315334	6.1905173614571	0
4.9002967662305	14.698789777549	0
5.05	14.834347813918	0
4.95	14.894536113346	0
8.5275461735105	13.475161329137	0
8.5350561007525	13.591635499582	0
23.708017310135	5.0679061559452	0
23.57570494199	5.2584272387846	0
23.492391392804	5.1534065041647	0
7.9373561751407	13.751251250399	0
5	15	0
4.9	15	0
25.208739718026	4.888006064741	0
25.308739718026	5	0
25.108739718026	5	0
6.7500015991102	14.393833151611	0
6.8150329680421	14.202631790528	0
7.6608988246309	14.077278430761	0
7.653388897389	13.960804260315	0
12.90584248136	11.163420843689	0
12.869102531961	10.99433263336	0
12.993258208972	11.114856550571	0
14.304494123155	10.386392153803	0
14.40612001844	10.157493559677	0
14.654157033603	10.192134981332	0
11.237433729487	11.969668242483	0
11.18581934865	11.774417134635	0
11.36538604896	11.891113513304	0
11.120787979718	11.965618495718	0
11.885664010266	11.385614544848	0
12.082360983452	11.431411271421	0
12.024175277997	11.532589604422	0
13.080673936584	11.066292257453	0
12.98574828173	10.998382380126	0
13.867415485094	10.629213619392	0
13.77248983024	10.561303742065	0
13.830675535695	10.460125409064	0
10.909490913954	12.100065284392	0
10.844762499738	11.765076855645	0
12.934133900893	10.803131272278	0
3.6	14.810067208388	0
3.7	15	0
3.5	15	0
12.657805466197	11.128779422035	0
12.556179570912	11.35767801616	0
11.244943656729	12.086142412928	0
11.157527929117	12.134706706046	0
1.3	15	0
1.2	14.888006064741	0
1.4	14.810067208388	0
1.9	15	0
1.5	15	0
1.7	14.849260526121	0
12.119100932851	11.60049948175	0
2	15	0
2.05	14.894536113346	0
2.1	15	0
12.031685205239	11.649063774867	0
1.0997032337695	14.698789777549	0
1.05	14.894536113346	0
0.95	14.834347813918	0
11.332359384341	12.03757811981	0
5.7	14.849260526121	0
5.5	15	0
5.503868896942	14.598288840263	0
4.064468339761	12.492321883392	0
3.9817116885018	12.918420923089	0
3.7670358212135	12.67328000924	0
13.779999757482	10.67777791251	0
25.602637769837	4.524993056905	0
25.708739718026	4.8492605261212	0
25.458739718026	4.8343478139176	0
14.734062833973	10.027096517768	0
14.682448453136	9.8318454099206	0
14.862015153446	9.9485417885899	0
-0.24940646753892	14.834347813918	0
0.05	14.834347813918	0
0	15	0
15.804771660235	9.3804648697915	0
15.703145764949	9.6093634639172	0
15.578990087938	9.4888395467067	0
29.767533861964	4.3398980943704	0
29.508442951795	4.548348532907	0
29.495546029131	4.1485808085627	0
0.1	15	0
0.3	14.849260526121	0
27.458739718026	4.8945361133462	0
27.358739718026	4.8343478139176	0
27.508442951795	4.6987897775495	0
0.5	15	0
16.678928936356	8.8948219386129	0
16.4287009421	8.6628888321103	0
17.028591846805	8.7005647661415	0
1.1	15	0
1.95	14.834347813918	0
20.105956534257	6.4151422964054	0
20.247470662652	6.669867727517	0
19.925330046586	6.7203171073957	0
21.501394047603	6.0435423018831	0
24.087916739041	4.9470663132613	0
23.750549209437	4.5440302871062	0
2.3	15	0
2.2	14.888006064741	0
2.4	14.810067208388	0
26.308739718026	5	0
26.358739718026	4.8343478139176	0
26.408739718026	5	0
25.008739718026	4.8100672083876	0
24.908739718026	5	0
3	15	0
2.9	15	0
1	15	0
21.472583787351	6.4041201181382	0
21.297752332127	6.5012487043739	0
21.301387084399	6.2885606170178	0
19.199774869435	7.6667917392027	0
19.112359141823	7.7153560323205	0
19.104849214581	7.5988818618751	0
6.1791038580454	14.704649136022	0
6.0874157276122	14.951435706882	0
5.95	14.834347813918	0
6.8741572761215	14.514357068821	0
6.7867415485094	14.562921361939	0
16.402471585846	9.2208491189743	0
16.260666795241	9.171513098704	0
16.394961658604	9.1043749485289	0
6	15	0
28.922845333402	4.5823118347521	0
28.708739718026	4.8492605261212	0
28.602637769837	4.524993056905	0
4	15	0
3.95	14.894536113346	0
4.05	14.834347813918	0
28.108739718026	5	0
28.208739718026	4.888006064741	0
28.308739718026	5	0
7.136404458958	14.368664189468	0
7.1315806689246	14.154068764588	0
7.3112359141823	14.271535603232	0
23.945942620228	5.1435706882137	0
23.403806383266	4.93902940218	0
3.9	15	0
4.1	15	0
27.608739718026	4.888006064741	0
27.80227190671	4.8158423526409	0
27.708739718026	5	0
17.36404458958	8.6866418946778	0
17.356534662338	8.5701677242324	0
17.451460317192	8.6380776015599	0
5.3	14.849260526121	0
5.1	15	0
14.617417084204	10.023046771003	0
5.9	15	0
6.5387045333462	14.528279940285	0
14.998996154018	9.7832823839802	0
15.178651399276	9.9007492226244	0
15.003819944052	9.9978778088601	0
4.3	14.849260526121	0
27.508739718026	5	0
16.453147364059	9.0031966155281	0
16.256450390874	8.9573998889549	0
22.871235429146	5.6270914282524	0
22.72943063854	5.5777554079822	0
22.866411639112	5.4124960033725	0
21.122920876903	6.5983772906097	0
20.948089421678	6.6955058768454	0
20.981116086297	6.5490412703394	0
1.8827233936571	13.413209492963	0
1.635985724768	13.057931042977	0
2.0585343714792	13.116469985366	0
13.63397856251	10.414328682491	0
24.321832839145	4.8833962425865	0
24.408739718026	5	0
24.316180298466	5.0287141376427	0
24.708739718026	4.8492605261212	0
24.508739718026	5	0
24.458739718026	4.8343478139176	0
23.483145522431	5.2871413764274	0
9.2631921819019	12.842543338384	0
25.358739718026	4.8945361133462	0
25.408739718026	5	0
25.508739718026	5	0
12.206516660463	11.551935188632	0
3.1	15	0
12.308142555748	11.323036594506	0
24.679068235604	4.239790780138	0
25.006267059794	4.3425605622482	0
24.599747236054	4.5734506034563	0
22.521572518697	5.8213486007239	0
22.608988246309	5.772784307606	0
11.502367049532	11.725854108695	0
11.68202229479	11.843320947339	0
11.507190839566	11.940449533575	0
10.491228772839	12.376756444483	0
10.633033563444	12.426092464753	0
10.45820210822	12.523221050989	0
22.696403973921	5.7242200144881	0
23.395729794819	5.3357056695452	0
23.358989845419	5.1666174592169	0
2.8061019481889	14.524993056905	0
2.7	14.849260526121	0
26.108739718026	4.8492605261212	0
25.908739718026	5	0
0.9	15	0
26.458739718026	4.8945361133462	0
27.308739718026	5	0
27.408739718026	5	0
29.358739718026	4.8343478139176	0
29.408739718026	5	0
29.308739718026	5	0
26.508739718026	5	0
27.108739718026	4.8492605261212	0
27.214841666215	4.524993056905	0
28.408739718026	5	0
28.358739718026	4.8945361133462	0
28.458739718026	4.8343478139176	0
28.508739718026	5	0
21.923872593085	5.9809643515411	0
21.8222466978	6.2098629456668	0
26.708739718026	5	0
26.608739718026	4.888006064741	0
26.808739718026	4.8100672083876	0
28.908739718026	5	0
29.108739718026	4.8492605261212	0
14.056457107991	10.351750732149	0
13.954831212706	10.580649326274	0
29.658146185565	4.8343478139176	0
19.54461398985	7.2579391418513	0
19.724269235108	7.3754059804955	0
19.549437779884	7.4725345667312	0
21.647415242576	6.3069915319025	0
13.250681601775	10.754568246337	0
13.430336847033	10.872035084982	0
13.255505391809	10.969163671217	0
9.2674085862685	13.056656548133	0
16.489887313458	9.1722848258564	0
16.577303041071	9.1237205327386	0
17.626291772416	8.5409490153242	0
17.484486981811	8.491612995054	0
17.621467982383	8.3263535904443	0
21.284504402929	5.7190625713937	0
21.673644598829	5.7490312450385	0
17.276628861968	8.7352061877956	0
16.926965951519	8.9294633602671	0
17.239888912569	8.5661179774673	0
18.11404618869	8.0804750462887	0
17.902749122926	8.2149218349628	0
17.83802070871	7.8799334062158	0
18.238201865702	8.2009989634992	0
18.150786138089	8.249563256617	0
8.5612854570062	13.033675212718	0
9.0547266763919	13.085654315995	0
8.8115134512622	13.265608319221	0
14.741572761215	10.143570688214	0
9.2343819216497	13.203121154639	0
9.0595504664254	13.300249740875	0
9.4354427331278	12.548032281539	0
9.6630878033521	12.327490919146	0
15.615730037337	9.657927757035	0
15.520804382483	9.5900178797075	0
9.9706052236163	12.250719786823	0
14.828988488828	10.095006395096	0
15.528314309725	9.7064920501529	0
19.986516417945	7.2297131011419	0
19.949776468545	7.0606248908135	0
20.073932145557	7.181148808024	0
20.175558040842	6.9522502138984	0
25.309036484257	4.6987897775495	0
20.860673694066	6.7440701699633	0
20.853163766824	6.6275959995179	0
22.273535503534	5.7867071790697	0
22.208807089318	5.4517187503226	0
3.1317176073544	14.309812537406	0
20.736518017055	6.6235462527528	0
19.891590763091	7.1618032238144	0
19.899100690332	7.2782773942597	0
28.008739718026	4.8100672083876	0
27.908739718026	5	0
18.23069193846	8.0845247930538	0
28.309036484257	4.6987897775495	0
27.895939159663	4.4709363375124	0
28.265207298324	4.2898533340251	0
18.988203464812	7.59483211511	0
23.147692779655	5.301064247891	0
23.04606688437	5.5299628420167	0
19.024943414211	7.7639203254384	0
20.773257966454	6.7926344630811	0
20.423595056005	6.9868916355526	0
20.525220951291	6.7579930414269	0
18.325617593314	8.1524346703813	0
22.171909608248	6.0156057731953	0
18.358644257932	8.0059700638753	0
18.500449048538	8.0553060841456	0
13.113700601203	10.919827650947	0
18.179077557622	7.889273685206	0
[...]
CELL_DATA 5825
SCALARS Coverage double 1
LOOKUP_TABLE default
2.3066207511926 2.3128768842792 2.8521339833875 2.3185765865272 2.3259391683615 2.8461883553684 2.1536955979017 2.2831167550634 1.869573292201 1.9047904898359 2.7576135123569 2.7900405857716 2.2656135105654 1.8971627660009 2.8312149190709 2.316358558355 2.260152778201 2.774521674077 2.4019378675342 2.4185042649974 2.2112824394885 1.9175351301364 2.7991732387453 2.8808802460641 2.3576047165139 2.2179733248075 2.044086489961 2.0550643892617 2.9111891810485 2.4376795895012 2.130395589695 2.3528641114133 2.0646185370905 2.1094301128555 2.3495061368652 2.8519098637563 2.0562075002724 2.121063371159 2.4200842653355 2.7245875119985 2.8848979399362 1.6464322826574 2.88141827164 2.3288052498198 2.0434368836786 0.75934336881216 2.9251050642567 1.9327784159876 2.2796688300349 1.4784733378135 2.3691127909334 0.79435728012193 2.1773891880483 1.7590074739526 1.7040034838106 1.7868748147946 2.1508706757671 2.2052365204818 2.7118537729662 1.7833844914453 1.9229268989468 1.9554505397722 2.1194787646107 2.6774436717555 2.081746228247 2.7473923219711 2.143511817894 2.7233197530921 2.1785561346986 2.0134970579257 2.8699273337347 2.062506273624 2.7550833240107 2.4604616106385 2.434581276942 1.6187242330623 2.1610106615604 2.1490921838625 2.1381477289541 2.2035893334045 2.2338447585912 2.098583661145 2.7578669194717 2.7168537593961 1.9977637982375 2.9049510729468 2.2180291934836 2.0707803616292 2.4872513319685 2.2752965643203 2.3023191480127 2.2186363428328 2.1683357964387 2.048514090163 2.1675992600737 2.3645533533201 2.3393830148688 0.73179976858765 2.074040805959 2.8240317810207 2.2494882721585 2.8585431259275 2.0244094339584 2.7107194967726 2.6949068088605 2.8589599895325 2.1199348329985 2.7674099095825 2.3530574716357 1.501578165641 2.7857587598105 2.2827972472573 2.8137934355907 2.4096664560176 2.817300501535 2.8279611565182 1.9922716042122 2.3180395781392 1.9355871694379 2.0873856693945 2.1770316901658 2.702029503441 2.1579422245175 2.6668202573922 2.1656712693705 2.7201488961465 2.1456456166751 2.2689349722047 2.723587520513 2.2512350441071 1.8232978345203 2.1776048288583 2.6812710968845 2.2652301940027 2.0410004380322 1.8398756381865 2.383653964316 1.5703507177533 2.6930119024346 2.0669151925556 2.8021983293017 2.2143885355727 2.7346886115156 2.8287894141818 2.29792949415 2.4337386104422 2.8786975209659 2.3647294331527 2.3020250959327 1.7086560053513 2.3384590098973 2.8732684925365 2.8990805618434 2.0583217915977 2.8505110424253 2.0926416781959 2.8876655292352 2.4414619215189 2.2779117621607 1.9393597384503 2.3825494564314 2.1323799516657 2.9252986551293 2.296573698087 2.8752827297818 2.9025588647291 2.7640784519533 2.2889341314442 2.4297995018892 2.8146533400666 2.8286535934371 2.3142607007308 1.7762254233338 2.870195360363 2.838180592209 2.3060540167907 1.980110105692 1.6155843429562 2.3727559254158 2.8609762128078 2.0757330855501 1.9498220105304 2.3118007374145 2.4307324468354 1.4019048675721 2.160319427456 2.4097437284662 2.213511639933 2.8370098279837 2.3102797374939 2.2574603685896 2.8860258228984 2.9083685739416 2.3772128023017 2.215900361468 2.4078534857644 2.8044097937823 2.2389611073681 2.0226834771541 2.2945637542922 2.2840274550751 2.0303146771556 2.2995837523572 2.3955007714701 2.2704829800917 2.4096955226009 2.4371025515406 1.7967505904241 2.2406194608585 2.277022424356 2.2609474185041 2.2857356652488 2.1576893262648 1.7507900042333 2.1955009840915 2.3280076009349 2.3808496756924 2.0374142146316 2.4264169778662 2.4461627958721 2.4785923440329 2.4348985301876 2.4619787333339 2.2563734840434 2.3616919618243 2.0072566050032 2.3834158379371 2.0136944617985 2.1804152152485 2.3319394461904 1.8826385853664 1.800239544907 2.2038964028572 1.9889059405208 1.9815055722032 2.2339372709208 1.9027610247561 2.0428100290237 1.5450808985689 2.0903326212236 1.5151834869031 2.0530409537278 1.9353898475164 2.3257685753757 2.2041712211261 1.7573131674982 1.9616967672239 2.2289271129916 1.9828429778776 2.4214176078017 1.8722866052336 2.0149232190951 2.2452262757212 2.1828871119196 2.3155664457877 1.9961590710184 2.0448397250822 2.0686562404484 2.3144534885228 2.2533672218186 2.2566108509647 1.9712565747906 2.191870923782 2.2352050277764 2.386169124331 2.3507035601992 1.886207047922 2.4069813212973 2.1680530718693 1.8863249130172 1.9213634836696 2.2974452492767 1.5032504966406 2.0590423568617 2.1813798407409 1.4931953986358 2.2533412108454 1.4759751343127 1.8555455632105 2.1705123765661 1.6065887267225 2.0057777845458 2.4382404738093 1.8752929737465 1.9550543029539 2.1842089169958 2.0899740174029 2.3083298871762 1.9751632062958 2.1944597848969 2.3562014790229 2.2556045261378 2.2916042732991 2.2934563219546 2.4528312862619 2.4212932857596 2.1291875142426 2.1917465133415 2.3215425252696 2.2956365789094 2.456487437002 2.4275747528627 2.312042246024 2.3055352873103 2.4767772865234 2.4463349441867 1.763157530374 2.3587716209074 2.0554655599222 2.3932227637542 1.8231088858493 1.7583600266883 2.0813833296269 2.2085063889579 2.2790706724626 1.8843847182773 2.2096729012211 2.1066591797577 2.1270659177807 1.9358271795186 2.307425693931 1.9313248616827 2.251470943008 2.0032148122603 2.348476523035 1.9906399640998 1.9726596144961 1.7789867774437 2.2212313510235 1.8523525857846 2.2411698322871 2.265197777813 2.34861005024 2.1329480950768 2.1870867748245 2.1271943222046 1.873638311271 2.0827558215718 2.4399377483591 2.0996014461288 2.4557778465319 2.140637748678 2.4279663455356 1.9725557926269 1.8176550794396 1.7891948790147 2.0619461425087 1.829107825185 2.1423275975644 1.9884963715205 1.9264907555566 2.1520314171647 2.1234499554434 1.9890985084976 2.2263994310176 2.2315881084971 2.2265159863559 2.0555034488589 2.4218660051865 1.8841307963902 2.2043302500477 2.2591337754164 1.9191482928808 1.8390994074617 2.1107532490605 1.9887620302985 1.9995316415268 1.5830988767033 2.0140582064315 2.3054075407262 2.1454261779146 2.2273532847561 2.1054166090288 2.0186555785293 1.832972670455 2.3342938456098 2.3339296252272 0.6016695164312 2.2228163999958 1.0204800259102 2.364846980604 2.2802423123107 2.0776620148225 1.8966220413195 2.2946169732539 1.9930628034649 2.1070006149398 1.8068129214081 2.1587025171357 2.0102253480495 2.0182149101495 2.2538409781078 2.2794235670721 1.9215168568493 2.3002811382419 1.9048916404208 2.0360485668674 2.1372950515345 2.147168808532 1.9766998181773 2.319608099132 2.2459224930026 2.2592105325087 2.188609493563 2.2931332724341 1.9427677713369 2.3599407507714 2.2340712279161 2.0447355621191 1.2893290121488 2.1074043643631 1.7949530526046 1.7358783034167 2.1422267086547 2.1259931486233 1.8406251293522 2.1014964017709 2.1144233758403 2.0336826068015 1.73608526068 2.1170340534316 1.9961268140945 1.7724916406021 1.489230945934 1.7951906736804 1.8123936161983 1.7814142865498 1.974789785442 2.3517255063014 2.2442097885007 2.1343529687324 1.979195529266 2.3778428775361 2.2091439837146 2.1030960404873 1.8604402209474 1.7694791922296 2.2372169879885 2.1187463838397 2.0396442634639 1.9973539637789 1.8132187489369 2.3761755862314 2.2318932348585 2.1370235060863 1.9063181317172 2.2714355515751 2.1511993408834 2.0824866721024 1.201683920869 1.2054558297772 1.5167905192198 1.290356609096 2.247428261077 2.1144837961566 1.9427830978118 2.2076981728828 2.0759368045419 2.1951443236231 1.9752579193992 2.0267008577887 1.9656552322382 2.193317089326 2.1302187909301 1.958940919739 2.2379941051904 1.9903000165519 2.2183668812166 2.3085034336607 2.2058396108475 2.0316777653233 2.2610971689496 2.1169217046222 2.2338009763958 2.0704678553206 1.9937646931665 2.0608397750968 2.3087474596383 2.2365500489083 2.0616178666371 2.2429126652869 2.1172958486025 2.220415811823 2.3238476943463 2.2176819792667 2.0399966847554 2.2738879152277 2.11454459968 2.2345448035054 2.2488696978087 2.0167251299917 2.2202729238503 1.9955120558627 1.878852426046 1.640476764304 2.0590838474636 2.1301560424475 2.0378900773271 2.073788924855 2.0619331506283 1.8910440251003 2.0674151118836 1.9801375664146 1.7308260469063 2.101711734878 2.074461290827 1.8581378654015 1.9249112751829 1.9572835218141 1.841543026318 1.8956902277892 1.9122637330176 1.7310879252414 1.9746953053466 1.9551155871614 1.7432881317916 2.2373669378102 2.1281232623067 2.2124712316814 2.1264183475874 2.017956342209 2.0995231016305 2.2034197386306 2.1933152157412 1.9741620774797 2.2250098954322 2.2053259873039 1.9860137943635 2.2563514078172 2.1938372445062 1.9519055598927 2.1684992647985 2.2314404808689 2.1333920656782 2.1757089318268 2.1820293764904 2.0121499648025 1.8174624435459 1.9806324084917 2.0255380123342 1.8845826846669 1.7322592599905 1.4987977706759 1.8550216051168 1.6054396277571 1.511600307588 0.71742587585042 1.9878367241704 1.9234537601191 1.6932906807996 1.3715328197328 1.621279758682 1.7107477813859 1.8075938530273 1.9548112645386 1.6002784280401 1.7253226203652 2.1008051971945 1.5068444171722 2.0004407763481 1.3524698328039 1.1198126527647 1.7509183557659 1.6808599448478 0.51358028089777 1.7960401187513 1.7112079855849 1.8280793877659 1.6564140430008 1.7548361947137 1.6618255150721 1.608394477817 1.6588655485234 1.6724840479037 1.0986260816446 1.7690505903262 1.8943329615416 1.3782033004747 1.8057102776689 1.8196380915387 1.8071910168502 1.5681662758308 1.8158481037808 1.924604976569 1.8272942432236 1.5261353212008 1.8206755415159 2.0592285384333 1.7959874489641 1.8205035283928 2.0436415835059 1.9603611523942 1.696794138494 1.4708801617031 1.721305384687 1.4524945368578 1.3688960309066 1.5868222981821 1.8034789313176 1.4110518237994 1.5592233598054 1.3954652565556 1.5174753287064 1.3944324463239 1.2362819249795 0.99567417456593 1.2597257273783 1.3665012314733 1.1899428111636 1.5618371807318 1.5306529170689 1.7909877781612 1.4068977694777 1.7494541571879 1.7222961517983 1.5058266858493 1.7600631388223 0.50838620013152 1.0883872799117 1.3906366309092 1.1331764651515 1.1578997126306 1.5480404733141 1.5133458432927 1.1966803654312 0.49879841909142 0.92630270393338 0.43295572661395 0.56590552118017 1.7319602088576 1.7943956372888 1.6583531584261 1.529877393057 1.6317229573479 1.629278730035 1.2800543050403 1.0674750706373 1.4307603655394 1.8755587010349 1.2631434202051 1.9274780348477 1.3387148347767 1.2113852836311 1.7954161497867 1.5340239618309 1.3783869571025 1.5007518368961 1.3644608586649 1.5215218081099 1.7209088545276 1.4129964656054 1.3405603892472 1.3224083536968 1.7843745881001 1.515006579803 1.438491062766 0.91531102339578 1.806054171856 1.5827266894847 1.5852791022342 1.393258267035 1.7910724387686 1.5287118840457 1.3081786805153 1.3737350336833 1.3617009933685 1.5409497258606 1.2770694195224 1.2494306904153 1.5242295006886 1.0856531771672 0.8785023210072 1.0110421866467 1.7425091628038 1.4763650381331 1.7425849282299 1.533304486055 1.780298224889 1.3677078510698 1.7367512754608 1.3132058711882 1.4900692587219 1.2735323406863 1.1625496544227 1.5536856577678 1.0016663008866 0.43400305031287 0.93715136544817 1.0216420283821 1.3346330950833 0.98170400943024 0.53978778843829 1.1965536725528 1.2307828272493 0.17589667274074 1.484755528855 1.2392627157533 1.2852052118492 1.1670101581212 1.4738526425868 1.2869081423061 1.5537715519332 1.4102466776378 1.3090589568379 1.1794745836488 1.5195800557029 1.362863868501 1.593176015437 1.367836360878 1.383453576909 1.4057184794579 1.593565976033 1.3736342513095 0.82631280858457 1.3847295518254 1.3444902346368 1.3997230260551 1.0292175136144 1.3274635475207 0.94727060282207 0.99172504189532 1.1015695066636 0.64902137518689 1.3660333942333 1.1630110996453 0.9395599522272 0.86356240673513 1.4695852675984 1.4256497687239 1.3081932856584 1.2705358234965 1.4825553014341 1.167821887126 1.5439742342522 1.3128062339215 1.3913179689118 1.2556736600092 1.5856468155243 1.256848084025 1.6121138615022 1.3720371203648 1.3804358436456 1.4250294101412 1.6181440931637 1.3567064693269 1.3638262158163 1.410825098396 1.2413635324917 1.075932187573 1.3397058665762 1.3328309063164 1.3531145743948 1.2934561096294 1.2858317066343 1.6107226236357 1.5562246567208 1.301669624456 1.3096947741848 1.3854756619495 1.9004221988178 1.5119550690437 1.227736750966 1.3159993669888 2.0666776195646 1.594262389238 1.4022669009456 1.3278229771642 2.0791140998369 1.5793552477998 1.3720511218714 1.2976638519684 0.92877393881572 0.90111746991 0.9487030942696 1.2981054764002 0.64351225924584 1.2547876647828 0.86307220987723 1.2671182842792 0.84159954838843 1.9620890777236 1.5628083407439 1.2157010944929 1.2299909887109 1.8794857134272 1.505210080935 2.0729173688214 1.8244450177991 2.0598921713001 1.840545531791 0.71543716092403 1.1898165384317 1.3033006376324 1.1560190405205 1.0615826382107 1.1662097897437 1.2492982183794 1.4895063887633 1.1797061742365 1.2575287959683 0.85345540177897 1.0810886598753 2.0018352910363 1.74224001423 1.4805497299605 1.1913979666299 1.1022374754282 1.2326077713572 0.99214781271295 0.24600797427995 0.7134588469394 0.58172313361844 0.84711621795766 0.54718911848531 1.7479960798939 1.6695713981742 1.2657897598254 1.196665685466 1.311517256803 1.1751962397361 1.1856426010056 1.2242186579958 1.1412732115177 1.167932618047 1.1097814972005 1.2817705836675 1.2654301624423 1.0802413765569 1.1639532795086 1.1674414992205 1.1486081558548 1.07989109974 1.1134787809478 1.2458485904368 0.79948146801827 1.3649339452931 1.0404692660207 0.94021034715924 0.89903252016425 1.1744553619003 1.1317196627799 1.2532520961891 1.4749470363714 1.3808912672689 1.2402010038725 1.2337153859565 1.2670608933015 1.3497594447988 1.1998788147399 0.85677114183176 1.0644082414048 1.0501742782986 1.1701538874312 1.0758805239777 1.2236907458121 1.1524627383831 0.96954924131966 1.0571737556956 0.95274976328102 1.0166615551506 1.1869219355261 1.2892168657791 0.91724841947646 1.385808303321 1.3458668885675 1.3447748882366 1.1369499177293 1.0761976363943 1.1409996712934 1.1956883106993 1.1324786978262 0.98188612213519 0.89193627159316 0.95693809333045 1.3428055599002 1.3607111360792 1.1196123688568 0.95920003924534 0.83995452170906 0.91019836147125 0.98673360936572 0.87813287780085 1.0929463715407 0.92011008095308 0.95353478298531 0.81527865923889 1.087541210434 1.3315745394372 1.1032935366396 1.2768386147642 1.2669632549562 1.6733891467733 0.91731252904403 0.77916348229435 0.50508806610265 0.64415056022061 0.83177469609932 0.83101968581186 0.68557071544142 0.71814425761732 0.84064074739718 0.91492835432794 0.74909203850073 0.81052639714753 0.85258786662236 0.9416813819532 0.83745200743713 0.98987204557881 0.96756814226198 1.0618468310487 0.69120998478613 0.68440375661158 0.94902947021164 0.9766733888873 0.81258420284387 0.92651614758028 0.81229747487742 0.79840150848824 1.0661716948164 0.7792169489342 1.0873639238595 1.1228171666829 0.8687458570702 1.1184089738601 0.70311272227553 0.73479895252401 0.8236250225031 0.83932704933315 1.0587374585903 1.3452541255537 1.3723724743514 0.76594213521378 0.74273945250692 0.77488139281696 0.93472528620785 0.86245347826603 0.93808961956842 0.76862778101567 0.78093487776612 0.77765621514201 0.83662279894809 0.83665789006507 0.70178249796527 1.3648092945382 0.72060694598895 0.7280932478279 0.73872111807 0.6965634991198 0.68624788528316 0.65730968405909 0.72102430007119 0.77070139445143 0.72882730248801 0.70383130269302 0.73671661238189 0.73412377886927 0.61950090512454 0.70262147374047 0.72071983498578 0.72295872241039 1.3948342986029 0.65712780652099 0.6892115648125 1.0342996067843 0.69908576810149 0.62913581001702 0.68823722962165 0.59106631472394 0.72260517412118 0.73675176515078 0.69054120734485 0.6462293118069 0.68343889485748 1.4064250682893 0.6480780884192 0.68030840099711 0.63650310544126 1.2716313598026 0.7522564921616 0.68101657954049 0.75951083006668 0.73639607307065 0.67039668220627 0.63594059608469 1.1047962679957 0.60676112736344 0.63934162445373 0.60623255775553 0.6448551167861 0.67388772342885 0.66525140886645 0.61593275545069 0.6551443408344 0.60778869141493 0.61686939359535 0.77213279334651 0.64617964683517 0.64714949354439 0.83128011723947 0.61747065290679 0.68261139272788 1.0126321303843 0.75573038297421 0.81694791361418 0.57408227995845 0.5975317534436 0.53362488170005 0.65626536163544 0.62045282227623 0.60043115737039 0.64387496160475 0.54023098881244 0.58449454346985 0.58704700202198 0.60004085669674 0.98045062874723 1.0937526450833 0.54218129968884 1.2092958429004 0.5779336494677 0.46567407279854 0.52962635279472 0.98616309635902 0.53730596513457 0.74840559326188 1.0918833430678 1.4837211626929 0.64480103776507 0.5732575994082 0.58947121897778 0.62741370399923 1.5498576696009 0.49022169526322 1.5251984006242 1.1047206283409 1.7060930992923 1.4002825976812 0.86151747439499 0.99086592433056 1.5051728654437 1.3637961993327 1.404077442119 1.218353394761 0.8501233304427 1.1890318418762 1.0664981527097 1.2399230351114 0.51887256368206 1.2270440571174 1.0747178083766 1.1392445350118 0.83832172563305 0.96801687631449 0.74201660697758 0.83254403318623 0.98821390045802 1.1200607197538 0.95161875782045 0.40718254149861 1.4946542701338 1.2513722552024 1.1302797467553 0.82288112369408 1.3236347575427 0.18246818695917 1.0201243683377 1.4086967163754 1.2541639802208 0.99014835213067 1.180588197648 0.78283339718544 1.3761498869059 0.60639896178104 0.98583949026985 0.73475804104061 0.62425526974336 1.485114166895 0.95133861896494 1.7110183796331 1.555124417513 1.480341112895 1.1132051599168 1.3333740557404 1.3458357096719 1.1106334180842 1.2219988958084 1.179943239788 0.90270585769196 1.5914795480799 0.76239068604077 1.3970737128729 1.2689514214598 1.3634986184523 1.3692528004759 1.3416994753374 1.2886657151845 1.0835645803487 1.1726293128514 1.3580068590144 1.3044530068054 1.2584195070627 1.2864544161476 1.1640038181618 1.3030231192536 0.8999402885804 1.180687830704 1.2578662799002 1.1405728514553 1.32470211733 1.1436047664253 1.0574932247952 1.1831590680553 0.89786293609959 1.1381542802693 1.063152708934 1.0517934877685 1.3293041994455 1.2830844743601 1.3574755675873 1.3770603514389 1.1235778163392 1.261193923548 1.3557005329308 1.8007654586908 0.90213773518325 1.3636189952772 1.0062875795225 1.0002757356428 1.2549897824152 1.3401453850131 1.5025268622182 1.3910381209589 1.1393101979912 1.1763672615902 0.98795306977826 1.152219704615 0.97300176446895 1.3509340925767 1.3436497653327 1.390267096325 0.95113087297337 1.3310836940164 0.95116266334341 0.90305896012201 1.0222764141755 0.83865811171047 0.8816358275217 0.93696176075439 0.98218327860649 1.1218027814259 0.66382252365854 0.84834379514674 0.95525995360231 0.88257108971424 1.0714150692566 1.0324428283555 1.0330372030757 1.0065833066022 1.2454225091147 0.60717938148392 0.83745090087247 0.98866455151817 0.98526015315301 1.0808278223173 0.83911273619363 0.91292485616939 0.48901979907069 0.6092449301232 0.9732378881898 0.67426419911327 0.37800832944284 0.74566321968145 1.3634556531984 0.55124428290021 1.2142262525932 0.48953784765492 0.51983025044708 0.68515921170597 0.58021937780776 1.0573241335007 0.50067742914897 0.56099353269154 0.49992337494538 0.49962451028872 0.61167978662216 0.74986527752547 0.74519912296155 0.80147009046592 0.65257723864507 1.0898845159198 1.3185867595278 1.1649731482105 1.1727323714374 0.8517040666162 0.63312669642574 1.0082101462228 0.97239792198754 0.92355250895826 0.83460392369335 0.29145438702623 1.2994582978723 1.2528786561406 1.1683601330734 0.36749508332251 0.86820240308397 0.5799954684223 0.51620609692416 0.78670798620527 0.79422730819973 1.0514286575946 0.99497304294208 0.56068793007156 1.3806173557265 1.2830736689483 1.3309130912164 1.1079240029516 0.97958311886597 1.4270471746482 1.2304910826682 1.2609995785871 1.2245981275407 1.1080750762979 1.2212461776087 1.0570748446502 1.3216427411287 1.0691614044429 0.88511848350468 1.1112062659466 0.9723556204407 1.2494574859565 1.004238549464 1.3006672504712 0.81889524157545 0.89652235274368 0.96376098591378 0.68924829429307 0.88384962429587 0.97076318340071 0.86458267166604 1.220731