# vtk DataFile Version 3.0
d-2__ created by libgimli-v1.5.0-1-g5991b6ac
ASCII
DATASET UNSTRUCTURED_GRID
POINTS 3065 double
14.646647106361	10.075660810886	0
14.704832811816	9.9744824778853	0
14.741572761215	10.143570688214	0
7.2181179570912	12.323267801616	0
6.9022853070009	12.159878277929	0
7.188568129403	11.864968865302	0
12.573766225573	8.2541691958959	0
12.179090385116	7.8396649872294	0
12.486344232856	7.7791041952802	0
10.909490913954	12.100065284392	0
11.157527929117	12.134706706046	0
10.807865018668	12.328963878518	0
10.246630703596	12.451261426896	0
10.370786380608	12.571785344107	0
10.283370652996	12.620349637225	0
23.486823884586	4.2589561787297	0
23.872774184789	4.3331786567402	0
23.693453371076	4.6788038393608	0
9.4017034496321	12.989518397958	0
9.459889155087	12.888340064957	0
9.4966291044861	13.057428275285	0
8.6528831969526	9.1661723501876	0
9.0889129509339	9.1546198128334	0
9.0172223973042	9.5848707535605	0
4.95	14.894536113346	0
4.9002967662305	14.698789777549	0
5.05	14.834347813918	0
7.8357302798552	13.980149844525	0
7.7483145522431	14.028714137643	0
7.7115746028439	13.859625927314	0
7.9373561751407	13.751251250399	0
9.2631921819019	12.842543338384	0
9.0547266763919	13.085654315995	0
8.8463136869378	12.696007878209	0
6.9615730037337	14.465792775704	0
6.9945996683525	14.319328169198	0
7.136404458958	14.368664189468	0
21.8222466978	6.2098629456668	0
21.734830970188	6.2584272387846	0
21.698091020789	6.0893390284563	0
9.5840448320983	13.008863982168	0
20.073932145557	7.181148808024	0
19.986516417945	7.2297131011419	0
19.949776468545	7.0606248908135	0
8.1805694002704	13.571297247173	0
8.3602246455282	13.688764085818	0
8.1853931903038	13.785892672053	0
20.765748039212	6.6761602926357	0
20.627236771482	6.5291852330617	0
20.823933744667	6.5749819596349	0
8.5857318789655	13.373982996136	0
8.5275461735105	13.475161329137	0
8.3890349057803	13.328186269563	0
9.2343819216497	13.203121154639	0
9.0595504664254	13.300249740875	0
10.311662072528	12.260060065814	0
10.363276453366	12.455311173661	0
20.948089421678	6.6955058768454	0
21.049715316964	6.4666072827198	0
7.6608988246309	14.077278430761	0
7.653388897389	13.960804260315	0
28.908739718026	5	0
28.508739718026	5	0
28.708739718026	4.8492605261212	0
13.77248983024	10.561303742065	0
13.830675535695	10.460125409064	0
13.867415485094	10.629213619392	0
12.119100932851	11.60049948175	0
12.082360983452	11.431411271421	0
12.206516660463	11.551935188632	0
27.358739718026	4.8945361133462	0
27.309036484257	4.6987897775495	0
27.458739718026	4.8343478139176	0
22.57224829691	5.6036960972777	0
22.798029869207	5.4953214203625	0
22.696403973921	5.7242200144881	0
13.080673936584	11.066292257453	0
12.956518259573	10.945768340243	0
13.18229983187	10.837393663327	0
28.458739718026	4.8343478139176	0
28.408739718026	5	0
12.308142555748	11.323036594506	0
22.547801874951	5.2633883138599	0
13.63397856251	10.414328682491	0
12.024175277997	11.532589604422	0
12.031685205239	11.649063774867	0
15.703145764949	9.6093634639172	0
15.615730037337	9.657927757035	0
15.578990087938	9.4888395467067	0
12.444587677104	9.0315078187863	0
12.75	9.25	0
12.46875	9.40625	0
10.45820210822	12.523221050989	0
14.654157033603	10.192134981332	0
17.902749122926	8.2149218349628	0
18.150786138089	8.249563256617	0
17.801123227641	8.4438204290885	0
11.332359384341	12.03757811981	0
11.244943656729	12.086142412928	0
11.237433729487	11.969668242483	0
17.130607666996	8.4717569577762	0
17.327304640181	8.5175536843494	0
17.269118934726	8.6187320173503	0
12.018062834866	9.3144627641309	0
16.96875	6.90625	0
16.518062834866	6.8144627641309	0
16.944587677104	6.5315078187863	0
12.759821286388	10.899971613669	0
12.551355780878	11.14308259128	0
12.342942791424	10.753436153495	0
16.577303041071	9.1237205327386	0
16.453147364059	9.0031966155281	0
16.678928936356	8.8948219386129	0
21.923872593085	5.9809643515411	0
14.508135838631	9.9286857513121	0
8.7098875559768	13.494506913346	0
8.6224718283646	13.543071206464	0
7.5190940340254	14.02794241049	0
-0.24940646753892	14.834347813918	0
0.05	14.834347813918	0
0	15	0
2.3	15	0
2.2	14.888006064741	0
2.4	14.810067208388	0
11.507190839566	11.940449533575	0
11.36538604896	11.891113513304	0
11.502367049532	11.725854108695	0
0.1	15	0
0.3	14.849260526121	0
0.5	15	0
-0.95957299032574	12.742247653798	0
-0.63660515661073	12.736198774421	0
-0.72105850144488	13.237141247116	0
2.9	15	0
2.7	14.849260526121	0
2.95	14.834347813918	0
1.2	14.888006064741	0
1.3	15	0
1.1	15	0
1.9	15	0
1.95	14.834347813918	0
2	15	0
23.155770102009	4.4707815868157	0
23.398627607885	4.6419549088128	0
22.971047224781	4.718656217856	0
13.779999757482	10.67777791251	0
10.633033563444	12.426092464753	0
10.491228772839	12.376756444483	0
10.628209773411	12.211497039873	0
2.0997032337695	14.698789777549	0
2.05	14.894536113346	0
8.8115134512622	13.265608319221	0
7.6871281808847	13.519318143897	0
3.05	14.894536113346	0
3	15	0
1.05	14.894536113346	0
1	15	0
25.508739718026	5	0
25.458739718026	4.8945361133462	0
25.608739718026	4.888006064741	0
0.95	14.834347813918	0
0.9	15	0
23.708017310135	5.0679061559452	0
23.57570494199	5.2584272387846	0
23.492391392804	5.1534065041647	0
6.5387045333462	14.528279940285	0
6.7500015991102	14.393833151611	0
6.7867415485094	14.562921361939	0
7.4860673694066	14.174407016996	0
7.3112359141823	14.271535603232	0
7.3148706664546	14.058847515876	0
6.0874157276122	14.951435706882	0
6	15	0
5.95	14.834347813918	0
13.954831212706	10.580649326274	0
7.5148776296588	13.813829200741	0
11.889880414633	11.599727754597	0
6.8666473488796	14.397882898376	0
6.8741572761215	14.514357068821	0
1.4	14.810067208388	0
3.95	14.894536113346	0
4.05	14.834347813918	0
4	15	0
3.1	15	0
12.993258208972	11.114856550571	0
12.898332554118	11.046946673243	0
12.90584248136	11.163420843689	0
3.9	15	0
4.1	15	0
2.1	15	0
5.1	15	0
5	15	0
7.1315806689246	14.154068764588	0
5.9	15	0
5.3	14.849260526121	0
4.6070433069999	14.368240644588	0
4.6	14.810067208388	0
5.1938980518111	14.524993056905	0
1.0997032337695	14.698789777549	0
25.708739718026	5	0
4.7	15	0
4.5	15	0
24.408739718026	5	0
24.316180298466	5.0287141376427	0
24.321832839145	4.8833962425865	0
24.708739718026	4.8492605261212	0
24.508739718026	5	0
24.458739718026	4.8343478139176	0
23.483145522431	5.2871413764274	0
11.573663228844	6.6878504141764	0
11.783228215591	6.953244789404	0
11.498511972069	7.1356956560705	0
25.308739718026	5	0
24.908739718026	5	0
25.108739718026	4.8492605261212	0
25.408739718026	5	0
25.358739718026	4.8343478139176	0
15.520804382483	9.5900178797075	0
15.528314309725	9.7064920501529	0
25.921540276389	4.4709363375124	0
26.277022110672	4.3098125374061	0
26.309036484257	4.6987897775495	0
21.069293459246	4.0184782266431	0
21.444587677104	4.0315078187863	0
21.46875	4.40625	0
25.214841666215	4.524993056905	0
25.508442951795	4.6987897775495	0
23.395729794819	5.3357056695452	0
23.358989845419	5.1666174592169	0
29.8125	2.6258505226016	0
30	3	0
29.625	3	0
5.8122409423352	10.291228465074	0
5.9889649985263	10.545789285321	0
5.5715926789368	10.688360310892	0
12.278524372398	8.4033099465931	0
12.266749266227	8.7424709281467	0
11.71080923903	8.5533847165846	0
26.458739718026	4.8343478139176	0
26.358739718026	4.8945361133462	0
23.147692779655	5.301064247891	0
23.04606688437	5.5299628420167	0
11.120787979718	11.965618495718	0
26.408739718026	5	0
26.508739718026	5	0
26.708739718026	4.8492605261212	0
9.409213376874	13.105992568403	0
30.458635160201	3.8690920654536	0
30.669330384347	4.1196162860905	0
30.364109258215	4.2441307961306	0
28.358739718026	4.8945361133462	0
27.408739718026	5	0
27.508739718026	5	0
25.6875	2.4642195584136	0
25.771866335589	2.1927504712561	0
26.053487503597	2.1539862920131	0
25.384151503975	2.7152844425934	0
25.6875	2.76491822766	0
25.5	3	0
9.2674085862685	13.056656548133	0
27.708739718026	4.8492605261212	0
28.308739718026	5	0
15.382293114753	9.4430428201335	0
29.308739718026	5	0
29.358739718026	4.8343478139176	0
29.408739718026	5	0
1.8061019481889	14.524993056905	0
29.658146185565	4.8343478139176	0
1.7	14.849260526121	0
1.5	15	0
30.090078193556	3.9711909286582	0
15.173827609243	9.6861537977444	0
15.3534828545	9.8036206363886	0
15.178651399276	9.9007492226244	0
18.23069193846	8.0845247930538	0
18.238201865702	8.2009989634992	0
18.11404618869	8.0804750462887	0
4.8	14.888006064741	0
4.9	15	0
16.402471585846	9.2208491189743	0
16.394961658604	9.1043749485289	0
16.489887313458	9.1722848258564	0
6.1791038580454	14.704649136022	0
17.36404458958	8.6866418946778	0
17.451460317192	8.6380776015599	0
3.6	14.810067208388	0
3.7	15	0
3.5	15	0
16.922142161486	8.7148679353872	0
16.4287009421	8.6628888321103	0
17.302858218222	8.1772459009316	0
17.553086212478	8.4091790074343	0
14.056457107991	10.351750732149	0
14.828988488828	10.095006395096	0
5.5	15	0
5.7	14.849260526121	0
21.1875	4.5625	0
20.90625	4.71875	0
20.882087677104	4.3440078187863	0
6.8150329680421	14.202631790528	0
6.4739761191302	14.193291511538	0
15.804771660235	9.3804648697915	0
14.930614384113	9.8661078009702	0
4.3	14.849260526121	0
19.199774869435	7.6667917392027	0
19.112359141823	7.7153560323205	0
19.075619192424	7.5462678219922	0
9.9706052236163	12.250719786823	0
10.035333637832	12.585708215571	0
20.860673694066	6.7440701699633	0
20.773257966454	6.7926344630811	0
9.6856707273838	12.779965388042	0
-0.43250979015094	13.369587523725	0
-0.85662454898514	13.581460773951	0
22.514062591455	5.7048744302785	0
22.375551323725	5.5578993707045	0
20.742913400511	4.047377368749	0
21.292928542093	6.286653279494	0
21.472583787351	6.4041201181382	0
21.297752332127	6.5012487043739	0
24.1875	2.7176993931111	0
23.626112873365	2.548251847651	0
24.1875	2.3788043021908	0
21.958672828761	5.41136391053	0
22.167085818215	5.8010103483154	0
21.673644598829	5.7490312450385	0
20.175558040842	6.9522502138984	0
19.891590763091	7.1618032238144	0
19.899100690332	7.2782773942597	0
19.017433486969	7.647446154993	0
18.878922219239	7.500471095419	0
18.325617593314	8.1524346703813	0
6.2866035579579	13.872661794752	0
6.1724083866651	13.36768415665	0
[...]
CELL_DATA 5846
SCALARS Coverage double 1
LOOKUP_TABLE default
2.4285804272724 1.0748614268321 0.88700774469951 2.2882284674894 2.8716502085487 1.4063009878523 2.4141248976817 0.75324739664245 1.863102941318 2.8537390063254 2.2734740875777 1.9257624580909 2.3384534286546 2.8468185475952 2.891890881989 2.866821135208 2.1755702434088 1.9140899358954 1.9629938939077 2.1828542959202 1.9735267198688 2.2642175271501 2.8769179258792 2.0499413986089 2.4604453318846 2.9048844247411 1.6217968973629 2.2410097332652 2.3371457018922 2.7064703000198 2.3256660496317 1.9949463447248 1.9979535860936 2.9201359381899 2.9130507568336 1.2359009220989 2.3751222928115 2.9255286136869 2.9636603068768 2.2994495473875 2.9327227002869 1.9773269535929 1.1893229903334 1.1482377454108 2.4326888878675 1.9686927805789 2.3294647615488 2.2530191557635 1.9959100056008 2.879810740083 2.3913900834999 1.0114931393548 2.0558362278421 2.2426743636153 1.6753501980865 1.6615039803948 2.4052032070772 0.22225103003753 2.1799110143503 2.1841540994175 2.7613375621972 1.4328670586227 2.9643892762863 2.2427915628556 1.7307013494823 2.1462370530617 2.0159324440606 2.2805892337044 2.1823334855795 2.7465603257137 2.2795131163468 2.7349711439037 2.3137405826072 2.2726728810567 2.1537489393472 2.7809087685235 2.5330192802861 2.9390044431724 1.9503753323568 2.4372056601167 2.3102020957735 2.0059812520824 2.2786848037818 2.7917191475087 2.4824076521105 2.9425288219986 2.825727185556 2.7719312472103 2.4410354828044 2.2205460239657 2.7998902707642 2.1768134171865 2.5782354421144 2.2126867993532 1.8274556965446 1.9764009968514 1.5693215002864 2.3056561346151 2.8732623098607 2.4043078756471 2.2189083781866 2.0867837065606 2.0880682627674 2.8741983876871 2.2465956317156 2.9032010901654 0.64742936261624 2.114759133981 2.7252666273809 2.9482889963609 1.5232623965185 0.95669861805855 1.7187857777289 2.8775550668978 2.7683713067688 0.35390123883613 1.9921983723395 0.69310995532327 2.2166689159752 0.97624860890226 1.7029728602178 2.1976406950691 2.3920654592789 2.179600017617 2.1359061193763 2.9031023835067 0.49309579100803 2.235500796818 2.6972718380133 0.53452318167734 0.69338004138032 2.3697093066519 2.295422699987 2.0970850461352 2.6984173672055 1.988672070146 2.8822271245374 2.2420285088853 1.6698150268868 1.5082414454521 2.1135329385236 0.46354566892533 2.9169653743872 2.23580107173 2.0987063735617 2.4447352071539 2.2977542940896 2.8485435544487 2.9509216895589 2.9083290003023 2.0624243079087 2.7672574806321 2.9045516972482 2.0598396893353 2.070220744326 1.9285679633112 2.0809698826176 2.4343657062558 2.838649467299 2.1702777410783 2.3466821037776 2.9348481678279 2.317970563738 2.1577764407325 1.0567262786221 1.8579532532502 2.425142825659 1.8279041801676 2.3404365563809 2.3512477892261 2.8696531839448 2.183740477091 2.8757197262297 2.0741770904473 2.8909476660948 2.8513335899337 2.3095221542726 0.29057137719792 1.880576604608 0.912737799359 2.1357452131062 0.6805919280185 1.7707272420947 2.2864663561622 2.912801642363 2.0155239203932 1.9514339845848 2.9221832832854 2.4022518161274 1.3803101556864 2.3404356953089 2.2195401413835 2.9221734205527 1.9926481575363 2.3804671426682 2.2970092888329 1.5429425848685 2.8948367532982 2.329635208077 2.3799513054429 0.4815954656709 2.2337907211194 1.9109525793936 2.4209823428841 2.2174907804092 1.6147085117833 1.500803085847 2.6997833476109 1.5157050582988 2.7066491466588 2.7262970100535 2.9004208942243 2.3196063478303 1.7508384770779 1.9357140671025 2.9511658828514 2.418082262993 2.4221044523238 2.0848498500978 2.4342694853019 2.2433291877951 2.3499351763065 2.1570616522985 2.3699988835976 2.1702203008533 2.4342429534805 2.2424775756092 2.4097878294851 2.0770972675943 1.7784943469374 2.0800456591308 2.2424763046045 2.2750702410468 2.8317508299642 2.8658457348993 2.8808454288742 2.3289855297034 2.1231456593861 1.915604922099 2.1562780449843 1.9742000424796 1.9488490205905 2.0868607845062 2.1898014283599 2.3807494231845 2.3865637133166 2.4257851052657 2.4178864732256 2.2223156249371 2.3120459821064 2.1074890574546 2.3366921386754 1.994559013593 2.2726768843537 1.9013789437494 1.9777209298914 2.0374053552547 2.3423367771524 2.3978222654706 2.2191255986893 1.8868146273933 0.74564947310735 1.9120341358732 2.1469190804855 1.7192575460585 1.937778345404 2.3454231537301 1.7519774301158 2.0895185041921 1.8268552662644 2.4577157217973 1.9827184596467 2.0826485549486 2.4575594600004 2.4689988420893 1.4936531934625 2.017468935322 2.387530340787 1.8982666767056 2.0631206634219 2.4101029117952 1.8172546393484 2.0782890857682 2.4694827856672 1.2490962616522 1.9184769768564 2.4522852928742 1.8354447512284 1.7930957437457 2.1702969829017 0.71031416234785 1.8563206685365 2.1908256338864 0.92140328978303 1.9380027688342 2.2154026972493 2.4534031652948 2.1360346227583 1.9720433596566 2.3549463851469 2.0162250866205 2.2713739138846 2.3762725212321 2.3154524470977 0.87704886443859 2.1328164436025 2.362454843824 2.372916235155 2.4102698768749 1.918851433807 2.1513770757302 1.9746762939723 2.2178533580275 1.8797605087679 1.6226554789222 2.1644105476459 2.2145336446512 1.8770853761757 2.1585237919367 2.2497672893424 2.0422706350379 2.1545907490538 2.049878593101 1.9987015930723 2.014163264089 2.1799814011382 2.2001008995296 2.3276415060347 1.8843080203801 1.5730794643032 2.2035231647014 2.3325444078938 2.1206122494987 2.2519888536038 1.3436334444924 1.546685206922 2.1304574423272 2.2610834424139 2.1987095441927 2.3267177642952 1.8239213505077 1.07912871959 1.865617559599 2.3240278450856 2.0383881305178 1.9278600206673 2.0753036745983 2.4248142543172 1.3831866808355 1.9681964723232 2.186265282905 2.1798336495204 2.3061765275982 2.0700905792441 2.2112654362393 2.0652754325989 2.4365883548247 1.9329796354288 2.0422722649435 2.0782690651932 1.9874756330389 2.1772058985728 2.3047718932237 1.8454558627338 2.2058337649589 2.1705770879965 1.4258202129301 2.2189516272278 1.3982080716816 2.193145391099 2.3165358811826 2.0936593593126 2.2263153262464 2.0533565102423 2.0983960726197 1.8853382693004 2.2816914403439 2.1316544786052 2.2214859703025 2.0583461687249 1.9409848814415 2.041130942903 1.9671610531713 1.5429793263531 2.4072159434885 1.8350096981451 2.413638732792 1.0308904069388 2.1367018238143 2.2540871535504 1.892752045864 2.1891894257644 2.255350253236 1.9765747072476 1.5301952498025 2.0961208169424 1.8438826390158 2.0730732411451 1.9746699244225 2.0276848963794 2.1811192036259 1.1656188745735 2.2199505240757 1.8288854726021 1.8428960118425 1.1932407306712 1.9892809510146 2.2945292980523 2.2061570433957 2.0300949977761 1.751688599421 2.1212558819853 1.9248068540535 2.2602965842728 1.9167094588766 2.2596741543313 1.926413577293 2.2709068661635 1.8628356666761 2.1813876129286 1.7745689630089 2.1995901014373 1.9217019006968 2.2704787253023 1.9141201344868 2.2487481495325 1.5789606058043 1.9495948655782 1.6615917174598 1.9942433546302 1.9101153259332 2.2511098645033 1.8263829683402 2.1375088737524 1.8405576944535 2.1663669356219 2.2068678577492 2.2153186717499 1.9100656522143 1.9823924727253 1.8908264843009 2.2834402011417 2.2089496823809 1.7558214134658 2.201603922386 1.6542057066484 2.120849580055 1.7671067161662 1.4608890273386 2.1476325674868 1.6785275060001 2.0726106954614 1.7943483710258 2.121237590877 2.0267688554802 1.8588754464205 1.8438282903658 2.1267394028107 1.9920895805846 2.0271880180257 1.4373501308435 1.8636357752113 1.8137713755381 1.8332291539868 1.7741683661694 1.9032581615709 2.3188559594771 2.1390152748475 1.8044544118541 1.8084950480437 2.2406670799626 2.0324096505654 1.8386150875114 1.8982435114888 2.3053210773658 2.1631679283634 2.0612935406114 0.99191718746032 1.1260860713274 1.1680763351141 1.0717664428373 2.1830891978655 2.0639779960112 1.892444089802 2.2446743631972 2.135122641401 1.9670265007452 2.2281443486499 2.0548854088307 2.1493281456483 1.9931273431084 1.9175869214291 1.5347853208134 2.1126269340262 1.9393342169227 2.0207431783764 2.0176012861282 1.9849009416141 1.8109438476901 1.9750976090926 1.8607371453557 1.9142128967555 2.2344168392706 2.1137991707961 2.1518859863273 2.2390744479051 2.098809813402 2.1537334449506 2.1498318417131 2.044303509591 2.0677821147449 2.1816986529481 1.8807411804002 2.0903127370637 2.2477181880139 2.0771203546416 2.1526049269654 1.9493334939625 1.8355894232097 1.8408378009354 1.9445727247683 1.8846417990425 1.8800946285623 2.2215492140253 2.1171809258339 1.9579765119698 2.2241715998 2.0865688356736 2.1353279846043 2.1240684929416 2.0145199549828 2.0264188972115 2.1703906512027 2.1340761118795 1.5801963037162 2.188895005623 1.9924826181472 2.0986948413096 2.2513624499552 2.080458409174 2.149641697453 1.9541024809271 1.8411480121686 1.3865437299784 2.2348028011007 2.0983532192472 2.1476876044255 2.1373048143212 2.0263795659208 2.0540652324089 2.0927175710598 2.0525803475738 1.9979048271533 1.9992377065777 1.9675639396496 1.7991633484462 2.1946630494276 2.0224950169043 2.1139744134897 2.2040512273346 2.0467401420806 2.1121968173631 2.1989886868468 1.873034422491 2.1045215072491 1.8666352719884 2.0237930056059 1.712899861867 1.6097187248649 1.6420258792188 1.3692770258457 1.8818036144295 1.9553390076067 1.8894790151918 1.7392725359686 1.9842407772207 1.691677373781 2.0318340061942 1.6657358213896 1.4421276249933 1.5638383012487 1.583721355883 1.7784396713653 1.4280770095161 1.5929026692852 1.6924279344373 1.634142568348 1.731404337555 1.4857283043497 1.9507340892421 1.386061860658 1.792865735505 1.6295068198828 1.8652315681817 1.8519154120123 1.8997359753647 1.7788320681714 0.94412352340176 1.6761233192866 2.0296191585106 1.6957555717346 1.7667082634646 1.6643599610739 1.7180205128951 1.6314091638094 1.9427590748114 1.7041248670561 1.7539925360618 1.3528117957501 1.9557494608571 1.3978420100787 1.5822280246366 1.5491698099519 1.8706144738016 1.8969353949882 1.8579550504698 1.776738789019 1.8263054801744 1.798185876171 1.6119414382959 1.8356866985328 1.7455629191481 1.9313378777145 1.7925981898681 1.8116871740617 1.5906958429956 1.5553363738036 1.7441084744614 1.0082236854807 1.6093105698966 1.6514120447332 1.7832151466062 1.1917644241347 1.7487426352904 1.1035630241835 1.961283562638 1.6844247486697 1.445671206871 1.6879677739607 1.0613836259112 1.3349365963065 0.70579516278714 1.041517378849 1.37332211266 1.7460991492504 0.52843669019199 1.6710024455119 1.2100123985863 1.0214445815633 0.3587933283574 1.0192935743215 1.2867904721181 0.7434882764284 0.59444279274712 1.4442468184827 1.4465552824065 1.4475498402103 1.9588126411656 1.7467246818831 1.688114244854 1.4102462036278 1.4148748424016 1.7541796276232 1.9141070491724 1.3284661911214 1.5311680825138 1.5521054472454 1.7426278772874 1.2103757450591 1.6438065232987 1.7950957191189 0.89684558441105 1.0834765129428 1.3228372733177 1.0516209639462 1.516995196651 1.7546167887265 0.90460263104646 1.4884291954959 1.6460871535467 1.5850787595751 1.4086352983826 1.7979254464654 1.1814499023381 1.0260558819762 1.9392992524482 1.4265414388688 1.3991642239659 1.4109719851651 1.401241294723 1.6056954173096 1.6531218842749 1.6542809915645 1.415376308801 1.36004280512 1.5853217174514 1.4560898875732 1.5890403946328 1.5456517424389 1.5873604958254 1.7964701375511 1.4650128070313 1.4399661943728 1.3333037111755 1.2122277052674 1.6356844445348 1.4819410751407 1.5701938995754 1.7136673047697 1.8480935176019 1.4450960234833 0.89179962372761 1.3201172971182 1.2919986593068 1.0756886997691 1.4211554433969 1.0124379880356 1.6844944655889 1.0268668376453 1.621578650913 1.4269200932724 1.9001674020398 1.7221951223857 1.1607240386022 1.8074840378283 1.6612201649704 1.5361906154029 0.3502857066427 0.58372611882422 1.380667972278 0.94265631436804 1.4963332047378 1.0439712428397 1.4375928283272 1.5562726189306 1.8697910820857 1.0553842094182 1.4211730007468 1.2456557657041 1.2354707724162 1.5128893214245 1.4766223683875 1.4713657702856 1.3847991651386 1.543190815692 1.4230106590835 1.4523698633312 1.2165873920869 1.2868734852443 1.2964893863097 1.4958238489043 1.4153110276741 1.3095174162434 1.6496200116854 1.5170062677574 1.4040964485614 1.6002836801974 1.4389760477495 1.5761840659923 1.2950683544735 1.6310352256559 1.4063000571479 1.6495354169176 1.4809427096068 1.5428208517146 1.6297224019379 1.3465149692844 1.9594446622863 1.5226734039595 1.0885696136189 1.3981778258236 1.4213096398655 1.7015758633781 1.2828925404177 1.0090918101898 1.2100501232652 0.91044630076812 1.8170469664639 1.240415865206 1.1291070293369 1.5004689952335 1.4218158019581 1.4883973972242 1.8096583692415 1.5859577055903 1.6863364678476 1.3808420652482 1.9647502890111 1.7926020566564 1.3886230982477 1.4483066893629 1.4194854779997 1.2374201911449 1.4023307002687 1.4220662787923 1.5681180065087 1.4155705057006 1.5036326278878 1.4170768412755 1.6516786161819 1.8263779773908 1.4105264482928 1.4402453773519 1.4075235371231 1.4161110981032 1.7066271582053 1.6791075456947 1.317491260749 1.5972947798917 1.5371177540645 1.3089843644903 1.3163293304695 1.2370797109761 1.231844586823 1.2996921357659 1.4262692678368 1.4072449003957 1.4269466510792 1.4175436102995 1.1740636424589 1.0018956415126 1.0949009073095 1.0797076308214 1.439435965055 1.1205606820509 1.3659532336409 1.413321036809 1.2710424048405 1.4308698601754 1.3508568580693 1.2166496797518 1.2190047893265 1.2517347036643 1.2586510160812 0.85821349547782 1.2035449468897 1.107093266911 1.299483030663 1.3553475363513 1.2274920171599 0.7954162884234 1.1536221378744 1.2427783608908 1.2275461224957 1.1887959121365 1.0223821818231 1.0263170770019 1.1605614431969 0.88387089960112 0.99341615460463 1.4151933330499 1.3334014550754 1.147901370228 1.4235486497468 0.88454703275491 1.1078062900482 1.1761314747475 0.92961283018183 0.99135042887001 0.99918260407443 0.90760646821842 0.81771526596778 1.1832102535718 1.0469097920687 1.1230800065558 1.4872002900916 1.1485936521408 1.6419901692112 0.69280621381587 1.7231006234984 1.3587689963488 1.1554156599078 1.0476189876706 1.6503513552058 1.5499909590537 1.367631438549 1.5743531650747 0.55548296589423 0.75418426225387 1.3878651488846 1.6613828340375 1.6653065905819 1.4305530208424 1.1322644560161 1.3432705333049 1.8098847975976 1.6002794739799 1.698016291769 1.3907519715015 1.3994573560219 1.4238160700289 1.4633841594687 1.3175195341489 1.0103354356883 0.77114360073467 1.5213832159507 1.8538766393634 1.4238751074737 1.4179857469394 1.4500633162412 1.2026254718247 0.52494531619639 1.2489980039437 1.3911415717711 1.4186287457002 1.4499223222481 1.0121152013273 1.4195880013526 1.4031985101792 1.4150686137184 1.3864320076591 1.4207058728333 1.4072906540721 1.3890702497822 1.3948824300331 1.4003954824901 1.397578024901 1.386784037495 0.77959332680691 1.3939792244376 1.4091364993002 1.390870856503 1.3849930836743 1.402125458039 1.0523878334043 1.3939976217477 1.3918950662232 1.393145625358 1.3873917943142 1.4083626833083 1.3852234224834 1.4036681736378 1.1238220860634 1.3931267837484 1.3868105107513 1.3976727848486 1.4853919308351 0.91496354256175 1.0567187681953 1.3972525918837 1.501067675484 1.0857593461053 1.1452998124669 1.0849290633722 1.0145681893912 1.3927574359569 1.4009018514002 1.3963490458248 1.4120637612314 1.412755022966 1.5615865036077 1.1445659242455 1.4598774792456 1.6562943527292 1.5884663264754 1.531055596114 1.0979506994274 1.4150061075848 1.3962608241075 1.4079572614901 1.3960414467941 1.0171175850259 1.0159928650694 1.0296082084158 1.1092612890391 0.96723819412538 1.1512517976753 0.9535747114758 1.0081359638286 0.9596245644837 0.92282214336868 1.0101166988101 1.0555156625339 0.92565866057648 0.91135669042094 0.99036471796109 1.0913904658933 0.96015428076099 0.96726154908612 0.8858141096458 0.79682405728521 0.93429796135541 0.96208034647439 0.8402622810646 0.84765372744458 0.93556830255579 1.0470553871921 0.97112155466763 0.94132555879564 1.0382563834082 0.91252836479295 0.92097072745195 1.2036326336286 0.92333272585925 0.87971016824755 0.88038921029867 1.0700915322974 0.79871577036965 0.90363785101981 0.84049180610374 0.84638887383532 1.1851396234253 1.4183341233058 0.95859002489335 0.84649910146799 0.76997675550157 0.79831884226387 0.88900635287412 0.82502682438529 0.81015926696153 0.82609849795093 0.75860167359766 1.1506012778254 0.76271710698364 0.68545093308314 0.86277008477406 0.7938051430723 0.96654383291907 1.1712181038354 0.97949932284389 0.95319504438854 0.87671262455433 0.80357351722621 0.80031242826392 0.8273963758305 0.76120999706652 0.79284665961253 0.81273286692136 0.74906281853459 0.88555404408079 0.82118239161058 0.7301049619929 0.64735356618198 1.0295762856625 0.85192203370155 0.73025658309747 0.82569536887247 1.1158865530218 1.1151319250491 1.0405928089959 0.90992414640981 0.73158607174126 0.79292071116289 1.0223543235975 0.91916933708132 1.0222620169063 1.0570986869765 0.9340986297765 0.84499840944963 1.0466249757529 0.97586125928402 1.0129018001952 0.90078495778699 1.3579659490902 1.4423803742806 0.64779518056815 1.0520911687871 0.60229421328161 1.1120708285008 1.1068207858538 0.63247649588874 1.0782372721761 0.8622716841149 1.0636159080565 0.94905002830312 1.0225274824013 0.84441386892466 1.1403917669633 1.0067373523095 1.0011675150752 0.93379581641342 0.9957572301693 0.68278586435071 1.1048807631281 1.1034104674732 0.59894213556585 0.73128522451793 0.962787454167 0.9585684945331 1.2776584736904 1.1311438519818 1.1187596146522 1.0335518781972 0.74429032877061 0.66088885457481 1.0558246871941 0.64527976763394 0.63589614264745 0.76890718648739 1.1035476449321 1.0827193428117 1.1825757588522 1.1903044688391 1.1897981416049 0.87427751240882 1.2082728281642 1.0565306342529 1.1334065838601 0.61053352140673 0.62619709386474 0.69333212682067 0.69093054644934 0.57359996440234 1.0306052783468 0.73376100706474 0.73924360513601 0.5720984926323 0.5368722112181 0.57503814156313 0.5617953258396 0.67824133826238 0.56333023102767 0.55657501953279 0.47845169713474 0.58916537848624 0.52418209327116 0.58097379994504 0.45615492021518 0.62035282607631 0.53376507392515 0.56204100161947 0.59246427114103 0.50404065970967 0.42528497361055 0.56784986338484 0.46264583548817 0.6222034477738 0.49863649040375 0.42791887361004 0.54949872383028 0.65477296941789 0.47783724570718 0.5204335634061 0.60999927931331 0.73107025368905 0.44950696338116 0.36563076472538 0.5398762710112 0.646024040859 0.60090075320562 1.2709998323499 0.78541952939208 0.7992165496855 0.51080105430993 0.40327216749995 0.49055411641371 0.48272860447366 1.4115533742658 0.53195485689399 0.47950296240159 0.31899132219924 0.46972134673018 0.49802294713822 0.61793070708367 0.37839530315787 0.43196290882148 0.5451061263501 0.40908150576404 0.64759980576505 0.57248157892598 0.65885899717836 0.53885223475127 0.64825898498534 0.44422418291631 0.37806008776618 0.43259014986848 0.57730252749864 0.49294383070217 0.45717483844974 -0.16407583878283 0.49118942858685 0.36816690723172 0.36974802187353 -0.11715659952621 0.25402119446279 1.0145164591721 0.83341834990183 0.62129956793386 0.86684454035276 0.55019265422474 0.70156173386114 0.6216781954141 0.80149271775291 1.1587194581454 1.2533186777796 1.6598243952352 1.4203819819375 1.4177857419928 1.1417729369405 1.4212773106999 1.4119647184865 1.4036074655536 1.2095112492856 1.0768961741343 1.1165581346448 1.0832633328214 1.184792559809 1.4669408707371 1.4138990884708 1.4077116888365 1.4018542939557 1.1819025834486 0.94641846729928 1.0715917978036 1.1241188437616 1.0105908973459 1.019356638734 0.85368751661988 0.8556469191612 0.98393291241765 1.0950033863914 0.89901729914598 1.0278552576246 1.0250545819223 0.97590035739813 0.86239627524865 0.8936896770053 0.93235974950386 0.81670439118729 0.90879259997115 0.88748088084867 0.77309660917277 0.76515326085281 0.96234001889783 0.86491183458397 0.71634065105143 0.78419425059888 0.78679414667249 0.83184031146472 0.74329052768923 0.64513229350963 0.74304888987077 0.73656583185746 0.79349311178265 0.64359837348605 0.71668133088959 0.72764420063289 0.65713797875381 0.77101206159696 