# vtk DataFile Version 3.0
d-2__ created by libgimli-v1.5.0-1-g5991b6ac
ASCII
DATASET UNSTRUCTURED_GRID
POINTS 3065 double
14.646647106361	10.075660810886	0
14.704832811816	9.9744824778853	0
14.741572761215	10.143570688214	0
7.2181179570912	12.323267801616	0
6.9022853070009	12.159878277929	0
7.188568129403	11.864968865302	0
12.573766225573	8.2541691958959	0
12.179090385116	7.8396649872294	0
12.486344232856	7.7791041952802	0
10.909490913954	12.100065284392	0
11.157527929117	12.134706706046	0
10.807865018668	12.328963878518	0
10.246630703596	12.451261426896	0
10.370786380608	12.571785344107	0
10.283370652996	12.620349637225	0
23.486823884586	4.2589561787297	0
23.872774184789	4.3331786567402	0
23.693453371076	4.6788038393608	0
9.4017034496321	12.989518397958	0
9.459889155087	12.888340064957	0
9.4966291044861	13.057428275285	0
8.6528831969526	9.1661723501876	0
9.0889129509339	9.1546198128334	0
9.0172223973042	9.5848707535605	0
4.95	14.894536113346	0
4.9002967662305	14.698789777549	0
5.05	14.834347813918	0
7.8357302798552	13.980149844525	0
7.7483145522431	14.028714137643	0
7.7115746028439	13.859625927314	0
7.9373561751407	13.751251250399	0
9.2631921819019	12.842543338384	0
9.0547266763919	13.085654315995	0
8.8463136869378	12.696007878209	0
6.9615730037337	14.465792775704	0
6.9945996683525	14.319328169198	0
7.136404458958	14.368664189468	0
21.8222466978	6.2098629456668	0
21.734830970188	6.2584272387846	0
21.698091020789	6.0893390284563	0
9.5840448320983	13.008863982168	0
20.073932145557	7.181148808024	0
19.986516417945	7.2297131011419	0
19.949776468545	7.0606248908135	0
8.1805694002704	13.571297247173	0
8.3602246455282	13.688764085818	0
8.1853931903038	13.785892672053	0
20.765748039212	6.6761602926357	0
20.627236771482	6.5291852330617	0
20.823933744667	6.5749819596349	0
8.5857318789655	13.373982996136	0
8.5275461735105	13.475161329137	0
8.3890349057803	13.328186269563	0
9.2343819216497	13.203121154639	0
9.0595504664254	13.300249740875	0
10.311662072528	12.260060065814	0
10.363276453366	12.455311173661	0
20.948089421678	6.6955058768454	0
21.049715316964	6.4666072827198	0
7.6608988246309	14.077278430761	0
7.653388897389	13.960804260315	0
28.908739718026	5	0
28.508739718026	5	0
28.708739718026	4.8492605261212	0
13.77248983024	10.561303742065	0
13.830675535695	10.460125409064	0
13.867415485094	10.629213619392	0
12.119100932851	11.60049948175	0
12.082360983452	11.431411271421	0
12.206516660463	11.551935188632	0
27.358739718026	4.8945361133462	0
27.309036484257	4.6987897775495	0
27.458739718026	4.8343478139176	0
22.57224829691	5.6036960972777	0
22.798029869207	5.4953214203625	0
22.696403973921	5.7242200144881	0
13.080673936584	11.066292257453	0
12.956518259573	10.945768340243	0
13.18229983187	10.837393663327	0
28.458739718026	4.8343478139176	0
28.408739718026	5	0
12.308142555748	11.323036594506	0
22.547801874951	5.2633883138599	0
13.63397856251	10.414328682491	0
12.024175277997	11.532589604422	0
12.031685205239	11.649063774867	0
15.703145764949	9.6093634639172	0
15.615730037337	9.657927757035	0
15.578990087938	9.4888395467067	0
12.444587677104	9.0315078187863	0
12.75	9.25	0
12.46875	9.40625	0
10.45820210822	12.523221050989	0
14.654157033603	10.192134981332	0
17.902749122926	8.2149218349628	0
18.150786138089	8.249563256617	0
17.801123227641	8.4438204290885	0
11.332359384341	12.03757811981	0
11.244943656729	12.086142412928	0
11.237433729487	11.969668242483	0
17.130607666996	8.4717569577762	0
17.327304640181	8.5175536843494	0
17.269118934726	8.6187320173503	0
12.018062834866	9.3144627641309	0
16.96875	6.90625	0
16.518062834866	6.8144627641309	0
16.944587677104	6.5315078187863	0
12.759821286388	10.899971613669	0
12.551355780878	11.14308259128	0
12.342942791424	10.753436153495	0
16.577303041071	9.1237205327386	0
16.453147364059	9.0031966155281	0
16.678928936356	8.8948219386129	0
21.923872593085	5.9809643515411	0
14.508135838631	9.9286857513121	0
8.7098875559768	13.494506913346	0
8.6224718283646	13.543071206464	0
7.5190940340254	14.02794241049	0
-0.24940646753892	14.834347813918	0
0.05	14.834347813918	0
0	15	0
2.3	15	0
2.2	14.888006064741	0
2.4	14.810067208388	0
11.507190839566	11.940449533575	0
11.36538604896	11.891113513304	0
11.502367049532	11.725854108695	0
0.1	15	0
0.3	14.849260526121	0
0.5	15	0
-0.95957299032574	12.742247653798	0
-0.63660515661073	12.736198774421	0
-0.72105850144488	13.237141247116	0
2.9	15	0
2.7	14.849260526121	0
2.95	14.834347813918	0
1.2	14.888006064741	0
1.3	15	0
1.1	15	0
1.9	15	0
1.95	14.834347813918	0
2	15	0
23.155770102009	4.4707815868157	0
23.398627607885	4.6419549088128	0
22.971047224781	4.718656217856	0
13.779999757482	10.67777791251	0
10.633033563444	12.426092464753	0
10.491228772839	12.376756444483	0
10.628209773411	12.211497039873	0
2.0997032337695	14.698789777549	0
2.05	14.894536113346	0
8.8115134512622	13.265608319221	0
7.6871281808847	13.519318143897	0
3.05	14.894536113346	0
3	15	0
1.05	14.894536113346	0
1	15	0
25.508739718026	5	0
25.458739718026	4.8945361133462	0
25.608739718026	4.888006064741	0
0.95	14.834347813918	0
0.9	15	0
23.708017310135	5.0679061559452	0
23.57570494199	5.2584272387846	0
23.492391392804	5.1534065041647	0
6.5387045333462	14.528279940285	0
6.7500015991102	14.393833151611	0
6.7867415485094	14.562921361939	0
7.4860673694066	14.174407016996	0
7.3112359141823	14.271535603232	0
7.3148706664546	14.058847515876	0
6.0874157276122	14.951435706882	0
6	15	0
5.95	14.834347813918	0
13.954831212706	10.580649326274	0
7.5148776296588	13.813829200741	0
11.889880414633	11.599727754597	0
6.8666473488796	14.397882898376	0
6.8741572761215	14.514357068821	0
1.4	14.810067208388	0
3.95	14.894536113346	0
4.05	14.834347813918	0
4	15	0
3.1	15	0
12.993258208972	11.114856550571	0
12.898332554118	11.046946673243	0
12.90584248136	11.163420843689	0
3.9	15	0
4.1	15	0
2.1	15	0
5.1	15	0
5	15	0
7.1315806689246	14.154068764588	0
5.9	15	0
5.3	14.849260526121	0
4.6070433069999	14.368240644588	0
4.6	14.810067208388	0
5.1938980518111	14.524993056905	0
1.0997032337695	14.698789777549	0
25.708739718026	5	0
4.7	15	0
4.5	15	0
24.408739718026	5	0
24.316180298466	5.0287141376427	0
24.321832839145	4.8833962425865	0
24.708739718026	4.8492605261212	0
24.508739718026	5	0
24.458739718026	4.8343478139176	0
23.483145522431	5.2871413764274	0
11.573663228844	6.6878504141764	0
11.783228215591	6.953244789404	0
11.498511972069	7.1356956560705	0
25.308739718026	5	0
24.908739718026	5	0
25.108739718026	4.8492605261212	0
25.408739718026	5	0
25.358739718026	4.8343478139176	0
15.520804382483	9.5900178797075	0
15.528314309725	9.7064920501529	0
25.921540276389	4.4709363375124	0
26.277022110672	4.3098125374061	0
26.309036484257	4.6987897775495	0
21.069293459246	4.0184782266431	0
21.444587677104	4.0315078187863	0
21.46875	4.40625	0
25.214841666215	4.524993056905	0
25.508442951795	4.6987897775495	0
23.395729794819	5.3357056695452	0
23.358989845419	5.1666174592169	0
29.8125	2.6258505226016	0
30	3	0
29.625	3	0
5.8122409423352	10.291228465074	0
5.9889649985263	10.545789285321	0
5.5715926789368	10.688360310892	0
12.278524372398	8.4033099465931	0
12.266749266227	8.7424709281467	0
11.71080923903	8.5533847165846	0
26.458739718026	4.8343478139176	0
26.358739718026	4.8945361133462	0
23.147692779655	5.301064247891	0
23.04606688437	5.5299628420167	0
11.120787979718	11.965618495718	0
26.408739718026	5	0
26.508739718026	5	0
26.708739718026	4.8492605261212	0
9.409213376874	13.105992568403	0
30.458635160201	3.8690920654536	0
30.669330384347	4.1196162860905	0
30.364109258215	4.2441307961306	0
28.358739718026	4.8945361133462	0
27.408739718026	5	0
27.508739718026	5	0
25.6875	2.4642195584136	0
25.771866335589	2.1927504712561	0
26.053487503597	2.1539862920131	0
25.384151503975	2.7152844425934	0
25.6875	2.76491822766	0
25.5	3	0
9.2674085862685	13.056656548133	0
27.708739718026	4.8492605261212	0
28.308739718026	5	0
15.382293114753	9.4430428201335	0
29.308739718026	5	0
29.358739718026	4.8343478139176	0
29.408739718026	5	0
1.8061019481889	14.524993056905	0
29.658146185565	4.8343478139176	0
1.7	14.849260526121	0
1.5	15	0
30.090078193556	3.9711909286582	0
15.173827609243	9.6861537977444	0
15.3534828545	9.8036206363886	0
15.178651399276	9.9007492226244	0
18.23069193846	8.0845247930538	0
18.238201865702	8.2009989634992	0
18.11404618869	8.0804750462887	0
4.8	14.888006064741	0
4.9	15	0
16.402471585846	9.2208491189743	0
16.394961658604	9.1043749485289	0
16.489887313458	9.1722848258564	0
6.1791038580454	14.704649136022	0
17.36404458958	8.6866418946778	0
17.451460317192	8.6380776015599	0
3.6	14.810067208388	0
3.7	15	0
3.5	15	0
16.922142161486	8.7148679353872	0
16.4287009421	8.6628888321103	0
17.302858218222	8.1772459009316	0
17.553086212478	8.4091790074343	0
14.056457107991	10.351750732149	0
14.828988488828	10.095006395096	0
5.5	15	0
5.7	14.849260526121	0
21.1875	4.5625	0
20.90625	4.71875	0
20.882087677104	4.3440078187863	0
6.8150329680421	14.202631790528	0
6.4739761191302	14.193291511538	0
15.804771660235	9.3804648697915	0
14.930614384113	9.8661078009702	0
4.3	14.849260526121	0
19.199774869435	7.6667917392027	0
19.112359141823	7.7153560323205	0
19.075619192424	7.5462678219922	0
9.9706052236163	12.250719786823	0
10.035333637832	12.585708215571	0
20.860673694066	6.7440701699633	0
20.773257966454	6.7926344630811	0
9.6856707273838	12.779965388042	0
-0.43250979015094	13.369587523725	0
-0.85662454898514	13.581460773951	0
22.514062591455	5.7048744302785	0
22.375551323725	5.5578993707045	0
20.742913400511	4.047377368749	0
21.292928542093	6.286653279494	0
21.472583787351	6.4041201181382	0
21.297752332127	6.5012487043739	0
24.1875	2.7176993931111	0
23.626112873365	2.548251847651	0
24.1875	2.3788043021908	0
21.958672828761	5.41136391053	0
22.167085818215	5.8010103483154	0
21.673644598829	5.7490312450385	0
20.175558040842	6.9522502138984	0
19.891590763091	7.1618032238144	0
19.899100690332	7.2782773942597	0
19.017433486969	7.647446154993	0
18.878922219239	7.500471095419	0
18.325617593314	8.1524346703813	0
6.2866035579579	13.872661794752	0
6.1724083866651	13.36768415665	0
[...]
CELL_DATA 5846
SCALARS Coverage double 1
LOOKUP_TABLE default
2.4287302407053 1.0748186781054 0.88702032289759 2.288100871987 2.8716936264503 1.4063775064487 2.4143033231987 0.75326894667206 1.8631226674826 2.8537094244169 2.2734206958239 1.9258229663301 2.3384359374857 2.8468456392323 2.8919141944256 2.8668574343273 2.1755480405624 1.9140418063654 1.9629183054819 2.1828084543549 1.9735463984472 2.2640784456079 2.8769355069326 2.0500701028333 2.4609754637264 2.9051302311747 1.621784689669 2.2407700468375 2.336955702793 2.7065769934473 2.3259245997821 1.9950560487524 1.9979791577163 2.9203360637096 2.9130090417147 1.2359077990901 2.3750925719966 2.9255923169053 2.9637869276566 2.2993041505796 2.9327696586609 1.9773324258333 1.1893249412032 1.1483089420064 2.4328704306702 1.968550979082 2.3295520009605 2.2531123805857 1.9960004359988 2.8797375907157 2.3913786373133 1.0117937292312 2.0557427745138 2.2427701356243 1.6755870584247 1.6616486261013 2.4053051599754 0.22219280162076 2.1798474324772 2.1840468723247 2.7613480364662 1.4329252546962 2.9642878075077 2.2428849198211 1.7306421481724 2.1461309514333 2.0159789514826 2.2801963211816 2.1822785273641 2.7465136606668 2.2794182190199 2.7350818051223 2.3136347034918 2.2726772295218 2.1537109956782 2.7807842665837 2.5330132474518 2.9391091055952 1.9503578660717 2.4374541671096 2.310392749554 2.005947278735 2.2787767478291 2.791801317947 2.4818979655289 2.9425143477183 2.8257674538446 2.772018881038 2.4410806260376 2.220469787972 2.7998795917178 2.176804568562 2.5782662991819 2.2126782293134 1.8275334085225 1.9764675312762 1.5692190419292 2.305601105466 2.8732359734846 2.4041610209123 2.2187582733723 2.0868803531864 2.0880746596065 2.874211427775 2.2466741638232 2.9031084181688 0.64740664317908 2.1147401281488 2.7252387888928 2.9482208660604 1.523358849563 0.95668806269598 1.7189295604747 2.8773422395502 2.7683067961745 0.35396334994067 1.9921452668633 0.69317107312421 2.2161086547035 0.97631146789159 1.7029684331904 2.1973258501535 2.3917012101573 2.1795765625733 2.1358569734293 2.9031169677256 0.49310551671949 2.2356082687481 2.6973033797827 0.53446490213951 0.69329235518308 2.3697041781591 2.2953132562544 2.0970959256135 2.6983143719073 1.9886575780034 2.8821595733036 2.2420850025995 1.6698309389779 1.5083801886867 2.1135049118819 0.46354652925536 2.9167948553108 2.2357755975291 2.0986616711012 2.4445864153645 2.2977759071512 2.8485788944024 2.9509833910658 2.908406024715 2.0624052974561 2.7671958074667 2.9044989034971 2.05994387255 2.0702422152272 1.9286882964925 2.0810874551927 2.4345501622129 2.8386422634385 2.1703655770817 2.3467041222797 2.935001336434 2.3180852245534 2.1577888859766 1.0567634721492 1.857977380479 2.4250309159812 1.8279449912801 2.3403767286281 2.3513969091471 2.8697569857381 2.1838264337936 2.8758435801673 2.074115166988 2.8908915030551 2.8511723731582 2.3095212736536 0.29044117497265 1.8804324093231 0.912744323672 2.1357536991031 0.68050663731469 1.7708050722431 2.2865420625366 2.9129515505638 2.0160289875795 1.9515118305083 2.9221073528641 2.4023296150778 1.3803209581822 2.3402187756287 2.2197041082309 2.9221997649492 1.9924648071669 2.3802934269816 2.2971379210192 1.542980967047 2.8948378310336 2.3291037271097 2.3804377816468 0.48156414702004 2.2337508360578 1.9108491277877 2.4209047517537 2.2174034677009 1.6148069275328 1.5008787892065 2.6998139936361 1.5158159015224 2.7066095903158 2.7263086452865 2.9003318956442 2.3196188744455 1.7508470662269 1.9357516674017 2.9512480176049 2.4177911011627 2.4221304077768 2.0849181522592 2.4344663383635 2.2435761827468 2.3498533283905 2.1569679219257 2.3702234946434 2.1704591179279 2.4340319401071 2.2422574107358 2.4098646547865 2.0770363095701 1.7785305217937 2.0801096457467 2.2425886185399 2.2751595705415 2.8315333211583 2.8657345198439 2.8809318122336 2.3290607276644 2.1229974440273 1.9155662956929 2.1562994391151 1.9742316780211 1.9487908547334 2.0869126942646 2.1897781676389 2.3806362937735 2.3865688975348 2.4256846682344 2.4179604052108 2.2224016119482 2.3119458214535 2.1074143882546 2.3367696977266 1.9945745408753 2.2727405280287 1.9015094114604 1.9778890052395 2.0372894816454 2.3423222791802 2.3981096079194 2.2194062251122 1.8867889796279 0.74561042208119 1.9120844119743 2.1467832114157 1.719298580825 1.9378385014026 2.3454199270526 1.7520841530408 2.0894960104317 1.8269512200193 2.4576524192554 1.982776935971 2.0826486933322 2.4576025482949 2.4691538391917 1.4936587412 2.0174838892693 2.3874486440736 1.8982481648277 2.0630770857879 2.4102812477065 1.8174013058745 2.0782581434435 2.4693833277364 1.2492036305539 1.918546887542 2.4522429932799 1.8354882449554 1.7930511834745 2.1702039253615 0.71026559519839 1.8562955473334 2.1908443058841 0.9214438224648 1.9379899127591 2.2152775384221 2.4534759915136 2.1359773360057 1.9720343456336 2.3548321605618 2.0160201474121 2.2712890145376 2.3763764519382 2.3153667119358 0.87702936535659 2.1328625333367 2.3624182775514 2.3728539934453 2.4102372498399 1.91884696626 2.1513432612723 1.9747222792954 2.2180210591789 1.8796592319666 1.6226929440413 2.1645819500711 2.214472327703 1.8770835275349 2.1585239810541 2.2496750296728 2.0422852720293 2.1546406736152 2.0497387168197 1.9986055050508 2.0140494377724 2.1799309388365 2.2001794613641 2.3277859806867 1.8843892907485 1.5731045810563 2.2036583966935 2.3327635820325 2.1206197524853 2.2520118604454 1.3436877003349 1.5467224913968 2.1306535700092 2.261329009125 2.1984371558388 2.3264315153323 1.8239290624141 1.0790872664174 1.8656527153978 2.3240980072759 2.0384271628991 1.9278660573703 2.0752864015321 2.4248350727807 1.3832710822963 1.9681256132437 2.1861835063659 2.1799671773776 2.306320307046 2.0700914400485 2.2112863636315 2.0652876374076 2.4366693465748 1.9329883828164 2.042282270283 2.0784131897934 1.9874153947988 2.1775170871264 2.3051017412867 1.8455447674376 2.205768213303 2.1707002966425 1.4258777747309 2.2189280602599 1.398156147837 2.1930457587088 2.3164231014278 2.0935976143681 2.2261289963901 2.0533360125958 2.0984756795651 1.8853578614804 2.2817483573733 2.1316031378179 2.2214567515393 2.0583732059049 1.9410964390461 2.0411237291268 1.9671828165234 1.5430091265462 2.407198935892 1.8351134469715 2.4136525743404 1.0308653456394 2.1366660635868 2.2540260238104 1.8927103539864 2.1891788812946 2.2554356118182 1.9766564830252 1.5305865243061 2.0960848989707 1.8438982051806 2.0730242403115 1.9747033723203 2.0279157213555 2.1810924875198 1.1657909926395 2.2199353773142 1.8288588786163 1.8430076371014 1.1933027747594 1.989284554507 2.2944147413501 2.2057757176876 2.0300004833131 1.7516692716566 2.1212389786513 1.9247309379825 2.2601890841898 1.9167901836634 2.2596711929794 1.9264273366034 2.2711659657366 1.8627987393672 2.1812532217872 1.7745240931345 2.199808015597 1.9217887972494 2.2703177355458 1.9140228807636 2.2487823219223 1.5788710323276 1.9495287211386 1.6616061307287 1.9942698528985 1.9100516393537 2.2511537931147 1.8263033554166 2.1373783509312 1.8406596605162 2.1664539264947 2.2068517739039 2.2153224392708 1.9101925820319 1.9823247860068 1.8908397528358 2.2835426065177 2.2089141907416 1.755831183077 2.2016014836848 1.6543199442448 2.1209569157435 1.7672482332117 1.460996410917 2.147602979036 1.6785914645913 2.0725819170527 1.7944095678695 2.1212369413054 2.0268087592686 1.8589339575007 1.8438265154891 2.1267066531491 1.9921337505308 2.0272098455164 1.4373687384272 1.8636594564196 1.8138473284985 1.8333299097139 1.7742243911551 1.9032802540724 2.3187716267465 2.1390136622772 1.8045840013554 1.8086257814229 2.2404728401134 2.0322250349806 1.8386951423603 1.8981570960174 2.3053408152035 2.1632502140591 2.0612067098187 0.99199476223812 1.1261489117092 1.1681275928714 1.0718514302307 2.1830656106702 2.0639813787356 1.8925169259108 2.2449970387678 2.1351111980196 1.9669462004749 2.228300241794 2.0548004146845 2.1494867615892 1.9930428601896 1.9175110677429 1.534866378317 2.1126175810801 1.9393896292185 2.0207400406912 2.0175109932949 1.9849021722298 1.8110745491474 1.9751259498793 1.8608177447647 1.9141924044376 2.2343969568703 2.1138148572636 2.1518710845889 2.2391197803157 2.0986663603541 2.1538346108961 2.1497940936276 2.0444030036206 2.0677180286557 2.1817436645234 1.8807231465342 2.0904349771726 2.2477562792015 2.077213799732 2.1525300702623 1.9493920652935 1.8355632202131 1.84090315925 1.9446007596559 1.8845937000742 1.8801147231345 2.2215509921074 2.1171549788821 1.9580163054947 2.2241461439168 2.0865614257549 2.1353419146303 2.1239417175182 2.0145104368763 2.0263308522451 2.1703274845456 2.1340636197735 1.5801786245475 2.1888594789636 1.9925198922005 2.0986472260952 2.2512196833643 2.0804593922455 2.1495428413601 1.9539976728224 1.8411909355669 1.3865742272428 2.2348787889474 2.0984302637763 2.1477662561576 2.1373613970738 2.0264201746759 2.0541691250836 2.0927207901006 2.0526611010485 1.997965404366 1.9993404835486 1.9675771858404 1.7991244784858 2.194795601383 2.0225602830825 2.1140433058963 2.2040365058373 2.0467309018712 2.1121394191703 2.1989111028732 1.8730573319069 2.1044799468569 1.8666261169797 2.0238020481232 1.712943583873 1.6097027455543 1.6419908596873 1.3692812315522 1.8815923023874 1.9553946842026 1.8895021238007 1.739234375391 1.9844005843576 1.6915925446723 2.0318905577183 1.6659896874681 1.4421883604131 1.5638334707278 1.5835558696448 1.778562509969 1.4279269327442 1.5929788525039 1.6923816114557 1.634113107393 1.7315308324379 1.4856577229398 1.950762746776 1.3860863796771 1.7928975693305 1.6296817637807 1.8652880515352 1.8519184722413 1.8996432105496 1.7788087503394 0.94413668481435 1.6762306105858 2.029623742738 1.6957852295113 1.7667299573562 1.6643871339931 1.7181646739161 1.6315875814056 1.9428142111895 1.7041897604478 1.7540358406562 1.3528140302018 1.9557507429228 1.3979398648939 1.5821739984288 1.5492221317599 1.8705825707874 1.8970100732236 1.8577771969202 1.7769438206579 1.8263367665125 1.7982426005932 1.6119702414647 1.8355841391405 1.745568976405 1.9312515855192 1.7926766780478 1.8113782977028 1.5908797821836 1.5554225823623 1.7441456359095 1.0081844004568 1.6093309949959 1.6513425793207 1.7833899375802 1.1918230162059 1.7487780989068 1.1035785552611 1.9612826150018 1.684474041322 1.4456759128755 1.6880264675252 1.0615468271938 1.3349471696583 0.70581546612363 1.0415009838506 1.3733940226321 1.7461820943894 0.52836851229109 1.6709959902308 1.2100299637035 1.0214383987249 0.3587421224302 1.0192956153679 1.2868768915486 0.74357758960885 0.59437407304204 1.4442912085828 1.4465390272743 1.4475612566276 1.9586768859616 1.7467973966348 1.6881330694963 1.4102375810446 1.414897511551 1.7539832157333 1.9140380849296 1.3284904866766 1.5310985309032 1.5521181764476 1.7426927705913 1.2104765158289 1.643577879196 1.7952082777837 0.89691729454022 1.0834250960143 1.3228940700349 1.0516795770183 1.5169988770629 1.7546931904355 0.90461343664792 1.4885212060843 1.6460794555479 1.5850591581526 1.4086232759061 1.7978416622124 1.1814593453981 1.0260313770492 1.9392378668198 1.4265655799675 1.3991768568059 1.4110025121324 1.4012232806122 1.6055401702936 1.6528634568945 1.6545186630969 1.4154459667973 1.3600715708658 1.5853645975093 1.4561627749966 1.5891113865123 1.5457148668376 1.5873518179967 1.7965054849952 1.4650720002189 1.4399426403938 1.3333303280161 1.212219085602 1.6357468842229 1.4819749111063 1.5701677371493 1.7135238475781 1.848232909098 1.4451694557973 0.89186678518127 1.3201848237616 1.2919789810029 1.0757942780846 1.4210742931861 1.0124950248025 1.6847372218484 1.0268846298984 1.6215318813719 1.4269526556174 1.9003875360489 1.7223656577108 1.1607113888304 1.8071910428752 1.6611331721631 1.5362616830268 0.35027132553185 0.5836916559187 1.3806447248519 0.94273560042472 1.4963218254065 1.0439991641371 1.4376945823247 1.556505120254 1.8697948140529 1.0554402917245 1.4211590835417 1.2456992393368 1.2355062164972 1.5127491417995 1.4766539748831 1.4713740860722 1.3847578487222 1.5432327305499 1.4230000794365 1.4523918162606 1.2166054703609 1.2868477973507 1.2964836370035 1.4958240659315 1.4152316619159 1.3095122921496 1.6497169799753 1.517115657939 1.4041786093677 1.600241611174 1.4389252790587 1.5762113199567 1.295040311587 1.6311628838838 1.4061674942264 1.6495751658127 1.4809383174034 1.5426386022575 1.6297659864033 1.3464664584684 1.9595514096883 1.5227578063903 1.0886372704857 1.3982291822504 1.4213613263839 1.7015801760998 1.2828915480403 1.0091044280781 1.210049710941 0.91050793487437 1.8170095219024 1.2404461701227 1.1291556780217 1.5004672917701 1.4219803263715 1.4883761879004 1.809724351792 1.5860079208958 1.6863748423974 1.3808578835918 1.9648488110411 1.7926762282088 1.3887197135261 1.4482775386902 1.4193668466141 1.2374392361508 1.4023860841716 1.4221733342062 1.568111372636 1.4155119899588 1.5035729206678 1.4171578508601 1.6517262552466 1.8264054482825 1.4105726594588 1.4403415441496 1.4074920399052 1.4161832873274 1.7066409772401 1.6791072419045 1.3175351658776 1.5973332845884 1.5371264672086 1.3089826554981 1.3163203573401 1.2370569094348 1.2318685615719 1.2996645799428 1.4262863728686 1.4073310296428 1.4269537218793 1.4176384692014 1.1741265237983 1.0019120773927 1.0949611252529 1.079752325416 1.4394856507732 1.1205168496274 1.3659722036233 1.4133637977756 1.271041302872 1.4308399753832 1.3508888384753 1.2166631920561 1.21899948609 1.2517571357045 1.2586444155621 0.85820424047978 1.2035426907626 1.107088154923 1.2994263737744 1.3553096918336 1.2275784377886 0.7954345602445 1.1535994513375 1.242688784444 1.2276132313078 1.1888325331514 1.0224220492783 1.0263767785793 1.1605374484652 0.88391400047263 0.99346975517361 1.4151406367301 1.3334240655726 1.1478548132793 1.4235867859224 0.88454420756984 1.1078730208443 1.1761850286069 0.92964866048642 0.99140627124054 0.99919308800582 0.90764112758801 0.81772831337591 1.1833020107612 1.0469629721789 1.123172567656 1.4873120298086 1.1486093278056 1.6421643547218 0.69272632499906 1.7231615019827 1.3588144034697 1.1554252452325 1.047571650195 1.6503775217869 1.5499627835849 1.3676748026019 1.5744238133729 0.55544142616251 0.75422180743242 1.3878928129443 1.6614857957828 1.6653936606021 1.4306009501806 1.1323611868178 1.3432101247353 1.8099786588569 1.600269680607 1.6979938094329 1.3907931419192 1.3994830141341 1.4238490167952 1.463406883252 1.3175426345974 1.0102763563876 0.77104690690083 1.5213780488225 1.853897599755 1.4239035027592 1.4179901903206 1.4500883117439 1.2026653283881 0.52495185319285 1.249016315682 1.3911058267114 1.4185733889191 1.4499198850474 1.012069763876 1.4195776673738 1.4032150954994 1.415037682194 1.3864061931499 1.4207258734894 1.4073002147053 1.3890926628399 1.3948377397152 1.4004017888776 1.3976067203982 1.3867814587829 0.77958120525041 1.393940338869 1.4091439467641 1.390868554094 1.3850189473182 1.4021239477285 1.0523443856375 1.3940889442152 1.3918692398998 1.3931866523749 1.3874062712651 1.4083360905328 1.3852999323854 1.4037253362411 1.1237831580306 1.3931872464757 1.3868426761683 1.3977210699529 1.485419706178 0.91494791370975 1.0567472865978 1.3972550439208 1.5010771742863 1.0857418766553 1.1452635375808 1.0848738983557 1.0145296231093 1.3927850680063 1.4008822814379 1.3963714008579 1.4120472224524 1.412733606843 1.5615542205648 1.1445439258093 1.4599642290975 1.6563274402906 1.588477421994 1.5310679043657 1.0979151301355 1.4150824356763 1.3962585822965 1.4079771078421 1.3960825234456 1.0171078050582 1.0160018905089 1.0296091621007 1.1092644618796 0.96722008583791 1.1512160164822 0.9535141146401 1.0080734344984 0.95961451889143 0.92283787385462 1.010123298156 1.0555147134861 0.92564031692235 0.9113743566954 0.99035958349364 1.0913690491311 0.96016341945121 0.96726760459517 0.88581739362627 0.7968562455576 0.93431714446241 0.9621073957892 0.84027934708465 0.84766010588997 0.93559581327609 1.0470716817188 0.97110521680241 0.94129029045524 1.0382381712078 0.91252108750213 0.92099001433954 1.2037088507109 0.92329920285745 0.87965586452051 0.88041100974059 1.070089612781 0.79873694663432 0.90363250490214 0.8405177239133 0.8464040354512 1.1851304817179 1.4183469693429 0.95855284739899 0.84648609533073 0.769996979804 0.7983439225021 0.88903136176217 0.82504089171276 0.81017386726124 0.82613589299365 0.75860961671378 1.1506671913581 0.76274628131032 0.6854856601765 0.86279207121477 0.79378384473581 0.966560825121 1.1712155062439 0.9794500153271 0.95315336535176 0.87669659225154 0.80361188830104 0.80031421035611 0.8274037573845 0.76123658839853 0.79287131761191 0.81271569748835 0.74909775546483 0.88552386835817 0.82117945916085 0.73015166384606 0.64735967100665 1.0295104344403 0.85188201600363 0.73026344546521 0.82562006603705 1.1158996299951 1.1151311486652 1.0405222732236 0.90987827264373 0.73165529663149 0.79295911590203 1.0223108888095 0.91911058730758 1.0222086367062 1.057048780478 0.93403303049531 0.84497773215477 1.0465544203411 0.97581855621995 1.0128247942926 0.90073374927326 1.357972966159 1.4424030717946 0.64770668240023 1.0521039942172 0.60221641876601 1.1120925892633 1.1069008840771 0.63238426337214 1.078267855212 0.86231163838918 1.0636620054041 0.94909493292585 1.0225767995708 0.84452062886886 1.1404255558842 1.0068069871657 1.0012330543003 0.93386026938217 0.99578166685695 0.68270355614412 1.1048798883912 1.1034756537244 0.5989906403675 0.7312052018217 0.96285180536885 0.95862975268508 1.2776336882581 1.1311539106176 1.1187871336477 1.0335872719922 0.74419608618268 0.66080779575413 1.055817581638 0.64522174433909 0.63587043964239 0.76883445667643 1.1035924435666 1.0827440892333 1.1825848353239 1.1902898274952 1.1897906110441 0.87419561416545 1.2082792368375 1.0566081340063 1.1334001967753 0.61044731527246 0.62611945711262 0.69325694006533 0.69089009138348 0.57360415673848 1.0305924749819 0.73367209442034 0.73916071500972 0.57202119731975 0.53681734520599 0.57497198867496 0.56172956409322 0.67823126395258 0.56324866440503 0.55651550501083 0.47839727237158 0.58913262217996 0.52412374255925 0.58095281031584 0.45610669230673 0.62038476492829 0.53372494607048 0.56198847974267 0.59240061308487 0.50395636048502 0.42528176959329 0.56789253774584 0.46259822883 0.62218494590257 0.49865742314286 0.42795537588644 0.54948532699672 0.65476704520335 0.47784129726464 0.52044989093798 0.60999942497381 0.73114781567636 0.44952198338571 0.36562755048144 0.53991659981264 0.64605985535148 0.60095045355256 1.2709948248668 0.78553558661845 0.7992917151121 0.51079321765255 0.40329697391787 0.49052500216276 0.48270615657476 1.4114589086061 0.53199167711527 0.47945455301088 0.31899302172673 0.46977686596258 0.49807915546893 0.61796521367442 0.37826222043266 0.43202757166914 0.54514466045092 0.40914528463924 0.64759286785055 0.57252370667206 0.65890267138762 0.53888748722205 0.64830002037057 0.4442885288357 0.37815151151335 0.43265010826279 0.57733966297589 0.49300135368297 0.45723480318945 -0.16397236438168 0.4912637862722 0.36825059134871 0.36982311400048 -0.11708986756519 0.25414928240298 1.0144981287265 0.8334111106009 0.62130073176471 0.86683293605636 0.55013400593089 0.70154462567433 0.62161047494849 0.8014628583595 1.1587073407214 1.2533185112834 1.6597395635685 1.4204022875658 1.4177559438037 1.1418191604566 1.4211807918926 1.4119394104276 1.4033993903406 1.2095508337841 1.076954952013 1.1166049522052 1.0833126406255 1.1848242689239 1.466907601577 1.4139259843766 1.4075294184543 1.4017928128845 1.181935260279 0.94645286549052 1.0716271897765 1.1241513616456 1.0106131817683 1.0193939808918 0.85371596848403 0.85567129182343 0.98397666082604 1.0950560894366 0.89904089345091 1.0278955335276 1.0250864043168 0.9759488258095 0.86239748599287 0.89371081715857 0.93238429650461 0.81672547201034 0.90882378353669 0.88749668331158 0.77308527947318 0.76513600758184 0.9623723364153 0.86493402089227 0.71633729900375 0.7842113453136 0.78679085680194 0.83185793362138 0.74328993227584 0.64511502667466 0.74303896486416 0.73655576225552 0.79352503189194 0.64359921996368 0.71666837192186 0.72763583247071 0.65711908662114 0.7710088