# vtk DataFile Version 3.0
d-2__ created by libgimli-v1.5.0-1-g5991b6ac
ASCII
DATASET UNSTRUCTURED_GRID
POINTS 3065 double
14.646647106361	10.075660810886	0
14.704832811816	9.9744824778853	0
14.741572761215	10.143570688214	0
7.2181179570912	12.323267801616	0
6.9022853070009	12.159878277929	0
7.188568129403	11.864968865302	0
12.573766225573	8.2541691958959	0
12.179090385116	7.8396649872294	0
12.486344232856	7.7791041952802	0
10.909490913954	12.100065284392	0
11.157527929117	12.134706706046	0
10.807865018668	12.328963878518	0
10.246630703596	12.451261426896	0
10.370786380608	12.571785344107	0
10.283370652996	12.620349637225	0
23.486823884586	4.2589561787297	0
23.872774184789	4.3331786567402	0
23.693453371076	4.6788038393608	0
9.4017034496321	12.989518397958	0
9.459889155087	12.888340064957	0
9.4966291044861	13.057428275285	0
8.6528831969526	9.1661723501876	0
9.0889129509339	9.1546198128334	0
9.0172223973042	9.5848707535605	0
4.95	14.894536113346	0
4.9002967662305	14.698789777549	0
5.05	14.834347813918	0
7.8357302798552	13.980149844525	0
7.7483145522431	14.028714137643	0
7.7115746028439	13.859625927314	0
7.9373561751407	13.751251250399	0
9.2631921819019	12.842543338384	0
9.0547266763919	13.085654315995	0
8.8463136869378	12.696007878209	0
6.9615730037337	14.465792775704	0
6.9945996683525	14.319328169198	0
7.136404458958	14.368664189468	0
21.8222466978	6.2098629456668	0
21.734830970188	6.2584272387846	0
21.698091020789	6.0893390284563	0
9.5840448320983	13.008863982168	0
20.073932145557	7.181148808024	0
19.986516417945	7.2297131011419	0
19.949776468545	7.0606248908135	0
8.1805694002704	13.571297247173	0
8.3602246455282	13.688764085818	0
8.1853931903038	13.785892672053	0
20.765748039212	6.6761602926357	0
20.627236771482	6.5291852330617	0
20.823933744667	6.5749819596349	0
8.5857318789655	13.373982996136	0
8.5275461735105	13.475161329137	0
8.3890349057803	13.328186269563	0
9.2343819216497	13.203121154639	0
9.0595504664254	13.300249740875	0
10.311662072528	12.260060065814	0
10.363276453366	12.455311173661	0
20.948089421678	6.6955058768454	0
21.049715316964	6.4666072827198	0
7.6608988246309	14.077278430761	0
7.653388897389	13.960804260315	0
28.908739718026	5	0
28.508739718026	5	0
28.708739718026	4.8492605261212	0
13.77248983024	10.561303742065	0
13.830675535695	10.460125409064	0
13.867415485094	10.629213619392	0
12.119100932851	11.60049948175	0
12.082360983452	11.431411271421	0
12.206516660463	11.551935188632	0
27.358739718026	4.8945361133462	0
27.309036484257	4.6987897775495	0
27.458739718026	4.8343478139176	0
22.57224829691	5.6036960972777	0
22.798029869207	5.4953214203625	0
22.696403973921	5.7242200144881	0
13.080673936584	11.066292257453	0
12.956518259573	10.945768340243	0
13.18229983187	10.837393663327	0
28.458739718026	4.8343478139176	0
28.408739718026	5	0
12.308142555748	11.323036594506	0
22.547801874951	5.2633883138599	0
13.63397856251	10.414328682491	0
12.024175277997	11.532589604422	0
12.031685205239	11.649063774867	0
15.703145764949	9.6093634639172	0
15.615730037337	9.657927757035	0
15.578990087938	9.4888395467067	0
12.444587677104	9.0315078187863	0
12.75	9.25	0
12.46875	9.40625	0
10.45820210822	12.523221050989	0
14.654157033603	10.192134981332	0
17.902749122926	8.2149218349628	0
18.150786138089	8.249563256617	0
17.801123227641	8.4438204290885	0
11.332359384341	12.03757811981	0
11.244943656729	12.086142412928	0
11.237433729487	11.969668242483	0
17.130607666996	8.4717569577762	0
17.327304640181	8.5175536843494	0
17.269118934726	8.6187320173503	0
12.018062834866	9.3144627641309	0
16.96875	6.90625	0
16.518062834866	6.8144627641309	0
16.944587677104	6.5315078187863	0
12.759821286388	10.899971613669	0
12.551355780878	11.14308259128	0
12.342942791424	10.753436153495	0
16.577303041071	9.1237205327386	0
16.453147364059	9.0031966155281	0
16.678928936356	8.8948219386129	0
21.923872593085	5.9809643515411	0
14.508135838631	9.9286857513121	0
8.7098875559768	13.494506913346	0
8.6224718283646	13.543071206464	0
7.5190940340254	14.02794241049	0
-0.24940646753892	14.834347813918	0
0.05	14.834347813918	0
0	15	0
2.3	15	0
2.2	14.888006064741	0
2.4	14.810067208388	0
11.507190839566	11.940449533575	0
11.36538604896	11.891113513304	0
11.502367049532	11.725854108695	0
0.1	15	0
0.3	14.849260526121	0
0.5	15	0
-0.95957299032574	12.742247653798	0
-0.63660515661073	12.736198774421	0
-0.72105850144488	13.237141247116	0
2.9	15	0
2.7	14.849260526121	0
2.95	14.834347813918	0
1.2	14.888006064741	0
1.3	15	0
1.1	15	0
1.9	15	0
1.95	14.834347813918	0
2	15	0
23.155770102009	4.4707815868157	0
23.398627607885	4.6419549088128	0
22.971047224781	4.718656217856	0
13.779999757482	10.67777791251	0
10.633033563444	12.426092464753	0
10.491228772839	12.376756444483	0
10.628209773411	12.211497039873	0
2.0997032337695	14.698789777549	0
2.05	14.894536113346	0
8.8115134512622	13.265608319221	0
7.6871281808847	13.519318143897	0
3.05	14.894536113346	0
3	15	0
1.05	14.894536113346	0
1	15	0
25.508739718026	5	0
25.458739718026	4.8945361133462	0
25.608739718026	4.888006064741	0
0.95	14.834347813918	0
0.9	15	0
23.708017310135	5.0679061559452	0
23.57570494199	5.2584272387846	0
23.492391392804	5.1534065041647	0
6.5387045333462	14.528279940285	0
6.7500015991102	14.393833151611	0
6.7867415485094	14.562921361939	0
7.4860673694066	14.174407016996	0
7.3112359141823	14.271535603232	0
7.3148706664546	14.058847515876	0
6.0874157276122	14.951435706882	0
6	15	0
5.95	14.834347813918	0
13.954831212706	10.580649326274	0
7.5148776296588	13.813829200741	0
11.889880414633	11.599727754597	0
6.8666473488796	14.397882898376	0
6.8741572761215	14.514357068821	0
1.4	14.810067208388	0
3.95	14.894536113346	0
4.05	14.834347813918	0
4	15	0
3.1	15	0
12.993258208972	11.114856550571	0
12.898332554118	11.046946673243	0
12.90584248136	11.163420843689	0
3.9	15	0
4.1	15	0
2.1	15	0
5.1	15	0
5	15	0
7.1315806689246	14.154068764588	0
5.9	15	0
5.3	14.849260526121	0
4.6070433069999	14.368240644588	0
4.6	14.810067208388	0
5.1938980518111	14.524993056905	0
1.0997032337695	14.698789777549	0
25.708739718026	5	0
4.7	15	0
4.5	15	0
24.408739718026	5	0
24.316180298466	5.0287141376427	0
24.321832839145	4.8833962425865	0
24.708739718026	4.8492605261212	0
24.508739718026	5	0
24.458739718026	4.8343478139176	0
23.483145522431	5.2871413764274	0
11.573663228844	6.6878504141764	0
11.783228215591	6.953244789404	0
11.498511972069	7.1356956560705	0
25.308739718026	5	0
24.908739718026	5	0
25.108739718026	4.8492605261212	0
25.408739718026	5	0
25.358739718026	4.8343478139176	0
15.520804382483	9.5900178797075	0
15.528314309725	9.7064920501529	0
25.921540276389	4.4709363375124	0
26.277022110672	4.3098125374061	0
26.309036484257	4.6987897775495	0
21.069293459246	4.0184782266431	0
21.444587677104	4.0315078187863	0
21.46875	4.40625	0
25.214841666215	4.524993056905	0
25.508442951795	4.6987897775495	0
23.395729794819	5.3357056695452	0
23.358989845419	5.1666174592169	0
29.8125	2.6258505226016	0
30	3	0
29.625	3	0
5.8122409423352	10.291228465074	0
5.9889649985263	10.545789285321	0
5.5715926789368	10.688360310892	0
12.278524372398	8.4033099465931	0
12.266749266227	8.7424709281467	0
11.71080923903	8.5533847165846	0
26.458739718026	4.8343478139176	0
26.358739718026	4.8945361133462	0
23.147692779655	5.301064247891	0
23.04606688437	5.5299628420167	0
11.120787979718	11.965618495718	0
26.408739718026	5	0
26.508739718026	5	0
26.708739718026	4.8492605261212	0
9.409213376874	13.105992568403	0
30.458635160201	3.8690920654536	0
30.669330384347	4.1196162860905	0
30.364109258215	4.2441307961306	0
28.358739718026	4.8945361133462	0
27.408739718026	5	0
27.508739718026	5	0
25.6875	2.4642195584136	0
25.771866335589	2.1927504712561	0
26.053487503597	2.1539862920131	0
25.384151503975	2.7152844425934	0
25.6875	2.76491822766	0
25.5	3	0
9.2674085862685	13.056656548133	0
27.708739718026	4.8492605261212	0
28.308739718026	5	0
15.382293114753	9.4430428201335	0
29.308739718026	5	0
29.358739718026	4.8343478139176	0
29.408739718026	5	0
1.8061019481889	14.524993056905	0
29.658146185565	4.8343478139176	0
1.7	14.849260526121	0
1.5	15	0
30.090078193556	3.9711909286582	0
15.173827609243	9.6861537977444	0
15.3534828545	9.8036206363886	0
15.178651399276	9.9007492226244	0
18.23069193846	8.0845247930538	0
18.238201865702	8.2009989634992	0
18.11404618869	8.0804750462887	0
4.8	14.888006064741	0
4.9	15	0
16.402471585846	9.2208491189743	0
16.394961658604	9.1043749485289	0
16.489887313458	9.1722848258564	0
6.1791038580454	14.704649136022	0
17.36404458958	8.6866418946778	0
17.451460317192	8.6380776015599	0
3.6	14.810067208388	0
3.7	15	0
3.5	15	0
16.922142161486	8.7148679353872	0
16.4287009421	8.6628888321103	0
17.302858218222	8.1772459009316	0
17.553086212478	8.4091790074343	0
14.056457107991	10.351750732149	0
14.828988488828	10.095006395096	0
5.5	15	0
5.7	14.849260526121	0
21.1875	4.5625	0
20.90625	4.71875	0
20.882087677104	4.3440078187863	0
6.8150329680421	14.202631790528	0
6.4739761191302	14.193291511538	0
15.804771660235	9.3804648697915	0
14.930614384113	9.8661078009702	0
4.3	14.849260526121	0
19.199774869435	7.6667917392027	0
19.112359141823	7.7153560323205	0
19.075619192424	7.5462678219922	0
9.9706052236163	12.250719786823	0
10.035333637832	12.585708215571	0
20.860673694066	6.7440701699633	0
20.773257966454	6.7926344630811	0
9.6856707273838	12.779965388042	0
-0.43250979015094	13.369587523725	0
-0.85662454898514	13.581460773951	0
22.514062591455	5.7048744302785	0
22.375551323725	5.5578993707045	0
20.742913400511	4.047377368749	0
21.292928542093	6.286653279494	0
21.472583787351	6.4041201181382	0
21.297752332127	6.5012487043739	0
24.1875	2.7176993931111	0
23.626112873365	2.548251847651	0
24.1875	2.3788043021908	0
21.958672828761	5.41136391053	0
22.167085818215	5.8010103483154	0
21.673644598829	5.7490312450385	0
20.175558040842	6.9522502138984	0
19.891590763091	7.1618032238144	0
19.899100690332	7.2782773942597	0
19.017433486969	7.647446154993	0
18.878922219239	7.500471095419	0
18.325617593314	8.1524346703813	0
6.2866035579579	13.872661794752	0
6.1724083866651	13.36768415665	0
[...]
CELL_DATA 5846
SCALARS Coverage double 1
LOOKUP_TABLE default
2.4287542870944 1.0747903258332 0.88703378202426 2.2882504855363 2.8716655820632 1.4063410415845 2.4143135699945 0.75321595234588 1.8631024912561 2.8537686568757 2.2735484048958 1.9259076236563 2.3384316476017 2.84670996889 2.8918728669376 2.8668574522858 2.1755425695776 1.9141493522769 1.9629100004283 2.1826620238255 1.9735530517889 2.2642491646846 2.8769282937376 2.0499668308465 2.4605780659253 2.9049684793013 1.6217524475928 2.2410201707088 2.3370847622806 2.706513063924 2.3257343367964 1.9948795424518 1.997919695885 2.9201507390673 2.9130786850554 1.2359889601051 2.3750683986037 2.9256645108939 2.9637067938205 2.2991922505728 2.9326435804933 1.97722635731 1.1894268913682 1.1483228765378 2.4329135468915 1.9686578286303 2.3295725784165 2.2528952588765 1.995958976986 2.8797314647704 2.3914224546868 1.0114951259943 2.0557590173057 2.2425384241868 1.675429937758 1.6615733060289 2.405078907069 0.22217886597917 2.1798918812574 2.1841767245656 2.7613752358504 1.4328266245927 2.9643168522494 2.2429155190908 1.7306617706799 2.1460802170257 2.0159304610845 2.2806285061388 2.1824515301909 2.7465706121516 2.2796945456705 2.7350300279689 2.3136872633615 2.2725935847395 2.1537452842621 2.7808522140907 2.5330179619572 2.9389687242108 1.9504241038195 2.4372167078249 2.3100135293758 2.0059969303374 2.2786369850839 2.791696818045 2.4821558104305 2.9425737743632 2.8256920155116 2.7718973143135 2.440936999334 2.2204463418272 2.7998607895657 2.1767806228454 2.5782285216225 2.2126763549836 1.8274794041455 1.9763856248876 1.5693355248736 2.3057000124557 2.8732389840644 2.4043904709884 2.2191102039958 2.0868045275607 2.0880435933556 2.8740504966382 2.246615020738 2.9031564663585 0.64736765980735 2.1148203665321 2.7253436503457 2.9482714419773 1.52336568095 0.95661715816858 1.7187585230532 2.8775118953286 2.7685697399831 0.35390796838488 1.9920744319551 0.69309761011836 2.2166499421329 0.97630647850207 1.7030468415484 2.1975925273323 2.3921851438086 2.1791865526747 2.1358275163329 2.9029319127873 0.49312107104656 2.2355849948893 2.6971532353252 0.5344760426776 0.69331431948431 2.3694864958455 2.2953538325438 2.0969870605225 2.6983435703983 1.9886984235529 2.8822044097854 2.2419922107132 1.6698598377185 1.5080812047131 2.1135547671431 0.46357852933956 2.9168989297253 2.2358412572056 2.0986964458761 2.4443984729024 2.2977394523896 2.848574301496 2.9510921789275 2.908368807829 2.062459856183 2.7671557376038 2.9043043199011 2.0597947823978 2.0702196207457 1.9286361485464 2.0810520938855 2.4343129527974 2.8385621839543 2.170005516447 2.3466407614708 2.9349786579433 2.3178551271281 2.1577757028954 1.0566442954627 1.8580042840748 2.425081873514 1.8280356672345 2.3404249941065 2.3513536750626 2.8696847233906 2.1836996240209 2.8758166101294 2.0741653748702 2.8911071981603 2.8512799020365 2.3094567204612 0.29054190525364 1.8805709297063 0.91268216705395 2.1356634202734 0.68050281964911 1.7707935765401 2.2864659607885 2.912777238689 2.0156192736746 1.9514582910214 2.9220649685737 2.4023884328861 1.3803203763733 2.3403161536656 2.2196206280693 2.9221860907256 1.9925738142888 2.3806205734994 2.2970863491253 1.5429598534269 2.8947951946191 2.3297249947901 2.3801300548775 0.48148837260055 2.2339463951169 1.9109511769825 2.4209920073833 2.2173797666607 1.6147212321091 1.5007811729406 2.6996718894802 1.5157520896327 2.7065852826192 2.726294592766 2.9003115101947 2.3194248717574 1.7507735209063 1.935727078647 2.9511658593818 2.4174084223895 2.4223020968457 2.0848696475746 2.4343365874591 2.2434119473606 2.3501166632494 2.1572130821273 2.3699843039682 2.1702534059793 2.4341238758289 2.24234104001 2.4098615341946 2.0771027356794 1.7784383888208 2.0799750116758 2.2424065400433 2.2750344592545 2.8317748538931 2.865859979486 2.8807340471552 2.3287339177505 2.1230635317575 1.9154866328449 2.156137319762 1.9739972854209 1.9489029180387 2.0869493162408 2.1898389406668 2.3807071514403 2.386588387546 2.4256831104919 2.4179038066102 2.222331382162 2.3120451305884 2.1074320204958 2.3366011040074 1.9945300100211 2.2727104076253 1.9014100448815 1.9777532016129 2.0373653776692 2.342336733279 2.3977999513416 2.21907932007 1.8868670129831 0.74550250311591 1.9120794890422 2.1468564315684 1.7192844009091 1.9377812928328 2.345435707065 1.7519774182679 2.0894959486554 1.8268511253588 2.4577023432757 1.9827743348289 2.0826360589629 2.457725163703 2.4690724650749 1.4936555485973 2.0174786627114 2.3876737272059 1.8982498650065 2.063100526708 2.4100843403739 1.8171001308382 2.078271457916 2.469401725711 1.2492182926031 1.918500313476 2.4523226466847 1.8354233601557 1.7931338872962 2.1702393539151 0.7102919831033 1.8564188576499 2.1906992053769 0.92139871140053 1.9379560839531 2.2153570544503 2.4533677701201 2.1358823948152 1.9720446561481 2.3549769208189 2.0162049311987 2.2712227290584 2.3761657193778 2.315402358967 0.87700504412278 2.1327707533202 2.3623851680149 2.3728886556265 2.4101155510086 1.9188589532189 2.1513504973455 1.9746463692996 2.2177475970817 1.8796789777177 1.6226683133347 2.1643326127457 2.2145243946296 1.8771114376623 2.1585373221156 2.2496962529382 2.0422316485891 2.1545496735815 2.0500365909447 1.9987359752362 2.0142802589514 2.1800038340885 2.2001927072934 2.3277929806502 1.8841847729488 1.5731303812122 2.2035454129874 2.3325445734446 2.120695875265 2.2520795062262 1.3435861930164 1.5467217078702 2.1305106172098 2.2611884266773 2.198600483104 2.3265986866804 1.8239493352945 1.0790683920162 1.8654815066491 2.3239970097438 2.0381964391783 1.9276762488131 2.0751008296841 2.4248525280422 1.3832197168492 1.9680301387112 2.1862507858526 2.1799485909653 2.3062612221823 2.0699665655597 2.2110953555321 2.0652717890696 2.4367081806008 1.9330330135725 2.0422984537958 2.0782229147785 1.9874952431327 2.177312678186 2.3049138591113 1.8455004948932 2.2058427087792 2.17061914902 1.4257900003565 2.2189355967548 1.3984775320799 2.1932273547166 2.3165883909213 2.09366680886 2.226289908898 2.0533702921291 2.0983508356838 1.8853670842366 2.2816502213092 2.1316593473743 2.2213582096292 2.0583895734703 1.940946844575 2.0411226483843 1.9671245199131 1.5429368918551 2.4071650869706 1.8351724306594 2.4134730789221 1.0308454458483 2.1367262934421 2.2541323572805 1.892751086256 2.1889788060547 2.2552492374253 1.9765674436776 1.530117917767 2.096164653067 1.843980076957 2.0728994106576 1.9748470908065 2.0277442838664 2.1811157793521 1.1656897947038 2.2198372056547 1.8289011989484 1.8428648460267 1.1932319329583 1.9892963559773 2.2942033971378 2.2061826508103 2.0300149335251 1.7516854962059 2.121246646516 1.9247524181904 2.2602933632344 1.9167362005317 2.2598722923131 1.9264212649861 2.2710150601988 1.8627841409544 2.1815610723944 1.7744770266945 2.1995971386926 1.9217223001338 2.2703588032768 1.9140691387529 2.2487925571969 1.5790762296583 1.9495147142961 1.6617722966936 1.9940598214082 1.9100487153291 2.2510522318689 1.8264767517955 2.1375081156077 1.8405572603208 2.1662467865923 2.2068961973562 2.2153950763718 1.9100812442101 1.9824024878348 1.8908475515042 2.2834356462371 2.208760813412 1.7557851136744 2.2015433554716 1.6542662172424 2.1208815695137 1.7671695611269 1.4609515536207 2.1475839708351 1.6786017318772 2.0725527255584 1.7943340424387 2.1212408966653 2.0267591648647 1.8588568821898 1.8438723126157 2.1268589803448 1.9920978596724 2.0271873984988 1.4373335470847 1.8636716129514 1.8137613914115 1.8332296888807 1.7741772533345 1.903308036857 2.3187236145944 2.1388595682352 1.8046103943008 1.808403751444 2.2406543268113 2.0324018286905 1.8386212220124 1.8983105984643 2.3053625831345 2.1632093152805 2.0612284724286 0.99198630872871 1.1261225462347 1.1680469869024 1.0717574210855 2.1831029545277 2.0639811577839 1.8924637089318 2.2446585666835 2.1350575753782 1.967035595293 2.2281724477439 2.0548846905154 2.1493211305893 1.9930530703415 1.9175730000528 1.5348833095725 2.1126393810103 1.9393380286882 2.0207552403081 2.0175866310629 1.9850062332858 1.8110184018597 1.9750855205825 1.8608038533073 1.9142258399428 2.2343943077389 2.1137996793284 2.1518317900209 2.2391070623662 2.0987369438688 2.153794157729 2.1498825299175 2.0442204135628 2.0678857063087 2.181683836282 1.8806891946086 2.0902851876919 2.2477126433513 2.0771911601391 2.1525326005018 1.9493435576319 1.8356463865017 1.8408047105205 1.944553748341 1.8848144368462 1.8800474664983 2.2216155053302 2.1171106305498 1.9578790974802 2.2240288781203 2.0866062573418 2.1352441826703 2.1240864942739 2.0145754196084 2.0264323668172 2.170377787051 2.1341249123062 1.58025096378 2.1889549236715 1.9925114126547 2.098739956575 2.2513361925125 2.0804088482389 2.1496568528215 1.9541079746584 1.8411598773997 1.3865762765241 2.2348372702689 2.0983611643674 2.1477686371603 2.1372248114703 2.026421629568 2.053990118658 2.0927000813205 2.0525146708956 1.9978867479988 1.9991932151495 1.9675532637623 1.7992197624354 2.1946849549867 2.0224326500991 2.114012695379 2.2040360176711 2.0467534688139 2.1121091474754 2.1989498468121 1.8730345190651 2.104505477874 1.8665896184645 2.0237688705541 1.7130052001717 1.6098045376232 1.6420583268862 1.3692488696749 1.8816967525014 1.9553113446515 1.8894316422651 1.7391298966735 1.9842912651241 1.6916166772169 2.0318120711413 1.6655936882463 1.4421722271168 1.5637343456399 1.5837260084268 1.7785480393346 1.4280109047239 1.5929391363412 1.6925970870063 1.6342815796874 1.7314544951657 1.4859513237401 1.9506375381572 1.386128804025 1.79296208882 1.6294605597786 1.8651768524088 1.8519567602956 1.8996763809036 1.7789436352864 0.94413754864562 1.6762420959187 2.0296205309072 1.6959438900166 1.7667121843976 1.6643861164606 1.7181133207467 1.6314749726528 1.9427646053455 1.7041974094655 1.754018620339 1.3528093711287 1.9558285732421 1.3978137416574 1.582444374684 1.549143143962 1.8706081588244 1.8969204328511 1.8578525844522 1.7767754143576 1.8262882864845 1.7982154829314 1.6119808607774 1.8357301638523 1.7457242868844 1.9312969043817 1.7926888398879 1.8116662217296 1.5906363275687 1.5555165138186 1.7441710839218 1.0081504824994 1.6093712210659 1.6514628865725 1.7832684754141 1.1918374527093 1.7488811615638 1.1035546128712 1.9613591653214 1.6844135342623 1.4456568553303 1.6879515124259 1.0614176938091 1.3349644804686 0.70572435519748 1.0414551747881 1.3733076874332 1.7461417598343 0.5283745074635 1.6710274778781 1.2100128070758 1.0213608706567 0.35879620176612 1.0192968209324 1.2866928105898 0.74349113814283 0.59431217722501 1.4443213422612 1.4465915047919 1.4475396780966 1.9587264410695 1.7467066677421 1.6880556657587 1.4103001266838 1.4148723261133 1.7540758108693 1.9140217161594 1.3285096045289 1.5311226165226 1.5519984623592 1.7426132278803 1.2104959012148 1.643757534687 1.7951370858511 0.89685666439373 1.083448447191 1.3229216159155 1.0516048326028 1.5169323693364 1.7546752010696 0.90455848179468 1.4884338304931 1.6462087223859 1.5851205803504 1.4086348934353 1.7978545070436 1.1814734980118 1.0260383302641 1.9392855572321 1.4265733306516 1.3991420465816 1.4109678438 1.4012236403144 1.6057260153061 1.6530509839617 1.6542076069301 1.4153487489737 1.3601219914396 1.5853887893284 1.4561483811103 1.5890463547046 1.5456380034069 1.5873811537574 1.7964876644878 1.4650826054846 1.4399956577202 1.3332837698906 1.2122020031063 1.6357570965168 1.4819628337988 1.5701219537749 1.7135364576834 1.8480497010098 1.4450839767755 0.8918417520712 1.320159620919 1.2919942902939 1.0756840910122 1.4211366709359 1.0124293456627 1.6844509042698 1.0268459866786 1.6215823626687 1.4269822910599 1.9002821768327 1.7222443350887 1.160756791404 1.8074157725273 1.6615606865222 1.5362309644692 0.35030086360383 0.58366850354758 1.3806913568812 0.94264459540008 1.4963488665392 1.0439277299953 1.4375550930449 1.556255808986 1.8697409988295 1.0554665837695 1.421195085818 1.2456609732717 1.2354554044811 1.512862094925 1.4766104761139 1.471339068195 1.3848075504901 1.5432394620917 1.4229559256773 1.4523446239623 1.2165952515132 1.2868336248362 1.2964864566248 1.4958317469475 1.4153012574101 1.309487536071 1.6497380487641 1.5170694358682 1.4041735766983 1.6001332096264 1.4389382330176 1.5761837807956 1.2950861911473 1.631071399596 1.4062566977006 1.6495461730493 1.4809320631218 1.542821201903 1.6297281522318 1.3464853611755 1.9594865508398 1.5227130447795 1.0886620977462 1.3982198457037 1.4213557422041 1.7015018754352 1.2828674147486 1.0090672454845 1.2100373641262 0.91042798329854 1.8170690774793 1.2405143586982 1.1292080259961 1.5004774072368 1.4218336592648 1.4883979651948 1.809704495671 1.5859440489601 1.6863497453196 1.3808475355151 1.9648080865702 1.7927241912181 1.3887184806397 1.4482347501546 1.4194415572998 1.2375148133331 1.4022710242613 1.42204958869 1.5680952704478 1.4155226788241 1.5036187657433 1.4170831293718 1.6516859578792 1.8263484818987 1.4104908478028 1.4402338577486 1.4074775324464 1.4161317208052 1.7066408176576 1.6790979957875 1.3174526596924 1.5972880443084 1.5371360407321 1.3089462925213 1.3163301600236 1.237037272883 1.2318267985588 1.2996466937867 1.4263159791753 1.4072316530345 1.4269762022643 1.417592592128 1.1741618096349 1.0019370992539 1.0949875665024 1.0797984573319 1.4393987041128 1.1204854678697 1.3659138161606 1.4132872195428 1.2709974638621 1.430848727519 1.3508320323517 1.2166066315347 1.2189659336218 1.2516863408193 1.2586148620084 0.85818718426025 1.2035031466037 1.10706776694 1.299444521024 1.3553133466004 1.2275789435888 0.7953817378917 1.1535991313878 1.2427574516829 1.2276549760306 1.188899698548 1.0224493067734 1.0263855857053 1.1605636314533 0.88387544320093 0.99348465534218 1.415162512699 1.3333952509916 1.1478810818948 1.4235862452497 0.88455787950824 1.1079042327928 1.1762356023159 0.92964180317316 0.99141924999023 0.99920797428425 0.90763387336563 0.81770628284881 1.1833275848602 1.0469863477759 1.1231821666901 1.4872712195034 1.1485966992625 1.6420951519566 0.69280043689151 1.7230817251369 1.3587994182301 1.1554101059945 1.0475901241768 1.6502984747492 1.5499468852392 1.3676603587192 1.5743882690428 0.55546159785353 0.75422509003901 1.3879306124185 1.661519865634 1.6653645719037 1.4306448294997 1.1323756154208 1.3432278688375 1.8099799614377 1.6002444711518 1.698041830824 1.3908209255132 1.3995235893018 1.4238891505872 1.4633919664703 1.3174999194359 1.0103163904884 0.77113786859703 1.5213569518834 1.8538481378286 1.4238320829619 1.4179789133435 1.4501918974934 1.2026360240656 0.52490138716673 1.2490214095189 1.3911007029677 1.4185679089359 1.4499116723655 1.0120291454605 1.4195574991727 1.4031817689508 1.4150289533533 1.3863889150132 1.420689810909 1.4072846991248 1.3890018391479 1.394835533807 1.4003393446913 1.3975592564621 1.3867533911064 0.77956586198476 1.3939399178406 1.4091179492535 1.3908512310302 1.384995337423 1.4021169878571 1.0523039586025 1.3940131302371 1.3919506194162 1.393133267657 1.3873678598212 1.4084040493721 1.3852317399225 1.4036704757465 1.1237562690602 1.3931386390394 1.3868257372446 1.3977011995404 1.4854094466096 0.91491784588435 1.0567559928562 1.3973349072382 1.5011049510934 1.0857495573037 1.1452513497684 1.084835632534 1.0145039958943 1.3927812361633 1.4009361739685 1.396378540286 1.4121173812004 1.4128139262855 1.5616066398046 1.1445394756774 1.4599083722422 1.6563211690201 1.5884975701024 1.5310716511923 1.0979026128813 1.4150297664877 1.3963421314454 1.4079922942682 1.3961548047408 1.0170834897108 1.0160162345237 1.0296001425812 1.1092802184681 0.96719144391501 1.1512074239893 0.95349543941676 1.0080542585367 0.95960274716478 0.92285593697183 1.0101170570038 1.0555284159336 0.92563282788272 0.9113466834827 0.99032457610583 1.091362782693 0.96013567327129 0.96725707356913 0.88578847513356 0.79679891755606 0.93429938073182 0.96208339322675 0.84024910009256 0.84763121840993 0.93557796031101 1.0471007489082 0.97107163553954 0.94129380074542 1.0382176538928 0.91250598873862 0.9209787996309 1.2037064726579 0.92328514335145 0.87963423331545 0.88038989044388 1.0701441287059 0.79869996840712 0.90361566532056 0.84047577344284 0.84638279895465 1.1852127145271 1.4183706248271 0.95852236415623 0.84646266531823 0.769969088944 0.79829794709734 0.88900564277818 0.82500479645578 0.81014534308825 0.82608066283688 0.75856852998095 1.1506841115748 0.76270284939269 0.68542154007477 0.86275564268818 0.79377411889904 0.96657578171674 1.1712819807453 0.9794215103475 0.95312987130261 0.87667933274195 0.80355884039735 0.80029797420581 0.82738037505714 0.76119844963494 0.79282874356944 0.81270220435042 0.74905848903781 0.88551354312645 0.82114939169788 0.73009707116322 0.64731768042899 1.029502120745 0.85188718230494 0.73023948717108 0.82563125373322 1.1159531099357 1.115185612858 1.0405019169403 0.90986849958372 0.73156550316148 0.79289804911339 1.022259977396 0.91910299096125 1.0221703787718 1.0570147738834 0.93401456728357 0.84496249268753 1.046545962018 0.97577515688926 1.0128267213762 0.90071805599408 1.3579150458325 1.442371401793 0.64772520585467 1.0520666746602 0.60223128891606 1.1120575271453 1.1067418802349 0.63241646376049 1.0781988808419 0.86231419493585 1.0635487790534 0.94904346576238 1.0224862201428 0.84445123641813 1.1403569618515 1.0067000442764 1.0011146824062 0.9337929558197 0.9957069543296 0.68271802838648 1.1048410921126 1.1033287266365 0.59894359768958 0.73122237350002 0.96278112511994 0.95852748216206 1.2776347089072 1.1311239635796 1.1187319601501 1.0335153106816 0.74422035972492 0.6608252003431 1.0558180408783 0.64521917885346 0.6358306675066 0.76882093368817 1.103498956684 1.0826895441325 1.182514261246 1.1902867462027 1.1897816371348 0.87416983173349 1.208261945835 1.0565033042793 1.133386705351 0.61047138829958 0.62613718691131 0.69327471923413 0.69086940815083 0.57359978642718 1.0305518427114 0.73370120680131 0.73915017924345 0.5720367805607 0.53681096538036 0.57497526371773 0.56174007454716 0.67817804433547 0.56327964489497 0.5565311664482 0.47845383438521 0.589123255563 0.52417290440175 0.58095980074067 0.45610345429393 0.62035177697181 0.53375352818935 0.56200364716692 0.59242085259366 0.50401943564529 0.42532235907828 0.56786158383095 0.46264906039762 0.62217798507362 0.49866170636053 0.42795563187331 0.54949427955534 0.65475768210106 0.47786049635917 0.52044314366627 0.6099865685498 0.7311205734315 0.44954577510588 0.36569287251529 0.53989257948008 0.64602799741842 0.60094778496907 1.2711509440561 0.7854764022442 0.79924699964481 0.51081200842195 0.40331988580146 0.49055671119378 0.48274134060064 1.41152623873 0.53195995573712 0.47947678461962 0.31906909089643 0.46974715544832 0.49804250624509 0.61792953943931 0.37829296553022 0.43200385384153 0.54511669843408 0.40909911352264 0.64752233715364 0.57248566188232 0.65886070763931 0.53885660526915 0.64825547441297 0.44423724332875 0.37810365933044 0.43260662225697 0.57730200086252 0.49295753446543 0.45719777125625 -0.16404099895997 0.49119017945926 0.36821885866969 0.36974059243921 -0.11712605700497 0.25408237071019 1.0145249339676 0.83347510575286 0.62131157137081 0.86688524621791 0.550160726436 0.70159143879803 0.62159135302866 0.80143677805079 1.158750399149 1.2534045250485 1.6597945228851 1.4203750703284 1.4177837496925 1.1418386836438 1.421235053111 1.4119347312557 1.403588435926 1.2095629816932 1.0769778504664 1.1166388741497 1.0833325773119 1.1848905224864 1.4669486989713 1.4139268215476 1.4076570884249 1.4018024726183 1.1819550593786 0.94645955637571 1.0716579468004 1.1242066963288 1.0106469639324 1.0194164400632 0.8536849073428 0.85564247133348 0.98398695955578 1.0950860844792 0.89904479882516 1.0279196138242 1.0251112570071 0.97595222991663 0.86239718768263 0.89370441942223 0.9323976785778 0.81667296167019 0.90882084707466 0.88750220677741 0.77306043362103 0.76511472967822 0.9623903387357 0.86491870387408 0.71629103674246 0.78414989402975 0.78675738233191 0.83182276074241 0.74324800004134 0.64507911479806 0.74300454671353 0.73651776229306 0.793481175641 0.64354574805774 0.7166270174419 0.72759591516297 0.65709363614463 0.77096737727892 0.7244852980560