# vtk DataFile Version 3.0
d-2__ created by libgimli-v1.5.0-1-g5991b6ac
ASCII
DATASET UNSTRUCTURED_GRID
POINTS 5650 double
48	0	0
48.5	-0.72383564313856	0
49	0	0
43.916468532993	-16.93817630311	0
44.813719915335	-16.684040559545	0
44.103865747123	-16.024651643668	0
0.5	-0.72383564313856	0
-0.13678534650528	-1.1637043844347	0
0.5	-1.6035731257308	0
44.714141549147	-17.421252672405	0
45.488861088791	-17.758485556354	0
45.402387047207	-17.138868613004	0
-1.0619847761962	-4.936349993843	0
0	-5	0
-0.33580381240029	-4.3503753830586	0
4	0	0
4.5	-0.79450420293268	0
5	0	0
49.5	-1.035639322046	0
49.5	-0.39712126985623	0
5.078125	-6.2527915044772	0
5.0837422256816	-7.1501377247586	0
5.7899146328518	-6.5964389586148	0
1.5	-0.39712126985623	0
1.5	-1.035639322046	0
2	0	0
1	0	0
2.5	-0.72383564313856	0
3.1789361770244	-0.65821172550344	0
3	0	0
71.007812310269	-6.9046973028969	0
70.703125	-5.6251101106048	0
70.362600246864	-6.3822624538041	0
8.6117732952021	-3.3687135862164	0
8.984375	-4.1885730546091	0
9.3915176531883	-3.5089409257858	0
59.058036759583	-16.379449372971	0
60.082540982335	-16.602693892561	0
59.842946141125	-15.684205328962	0
74.21875	-5.9020812572104	0
74.922069985054	-6.3996208644416	0
75.390625	-5.6766679889999	0
79.521882044071	-7.9126637486182	0
78.77671452237	-7.2157293020599	0
78.733292348102	-7.8990720455522	0
9.7022932466751	-9.3797630941979	0
9.4011036806802	-8.8258449701498	0
8.7301313767576	-9.4822248614299	0
7.5	-0.72383564313856	0
7	0	0
6.5	-0.87999123167934	0
8	0	0
24	0	0
24.5	-0.72383564313856	0
25	0	0
-0.98121341671352	-3.316317573615	0
-2.0883869552112	-3.6613622432107	0
-0.98131351071904	-4.006727928921	0
10.5	-0.72383564313856	0
11	0	0
10	0	0
92.10820705211	-10.814871289836	0
91.303242377859	-11.527638430795	0
92.494516646255	-11.37516960257	0
20.758090983271	-2.4076098338837	0
21.212774958083	-1.841377346957	0
20.5	-1.6035731257308	0
11.5	-1.035639322046	0
11.5	-0.39712126985623	0
14.950817063389	-3.6123730690161	0
14.456729904564	-2.6198684281298	0
13.950415199702	-3.4038011009942	0
61.5	-0.39712126985623	0
62	0	0
61	0	0
14	0	0
13.5	-0.87999123167934	0
14.5	-0.72383564313856	0
15	0	0
7.421875	-5.6178416201944	0
7.8125	-5	0
7.03125	-5	0
70.307049313576	-7.1105073672265	0
70.987462300086	-8.1313270440665	0
16.5	-0.79450420293268	0
16	0	0
15.636907794928	-1.1637043844347	0
49.380368342973	-14.403594260715	0
49.762452536326	-13.875377603959	0
48.702856302989	-13.563236546736	0
17.5	-0.86924456999677	0
17.842133546557	-1.4578468275696	0
18.451730491363	-0.78638761205352	0
17	0	0
86	0	0
86.5	-0.72383564313856	0
87	0	0
15.178936177024	-0.65821172550344	0
12	0	0
14.5	-1.6035731257308	0
73.552111145472	-12.150139251497	0
74.685574795544	-11.825008387948	0
73.635332236501	-11.455855550482	0
19.421876228847	-0.87845272147397	0
18.481117180167	-1.6928104359824	0
74	0	0
74.5	-0.72383564313856	0
75	0	0
47.5	-0.87999123167934	0
20.600660842622	-3.2810763673277	0
19.921875	-4.014206405412	0
20.703125	-4.2749229195371	0
20.5	-0.72383564313856	0
21	0	0
20	0	0
47.714873818087	-1.6358304326161	0
0	0	0
47.659091426356	-3.2587955255348	0
46.644063268882	-3.7676295932988	0
47.65625	-4.0980594759955	0
4.6875	-5	0
5.46875	-5	0
25.178936177024	-0.65821172550344	0
26	0	0
6.743622677804	-1.5960991182301	0
23.5	-0.87999123167934	0
23.793891749395	-1.5266265789032	0
4.8817697074875	-3.4124436668703	0
5.3480331527809	-2.7723842956063	0
4.6660535983522	-2.7509139105047	0
26.428358251672	-1.9770228288649	0
27.051878550646	-2.0419580111452	0
26.845584199524	-1.4499809999142	0
27	0	0
27.5	-0.72383564313856	0
28	0	0
28.178936177024	-0.65821172550344	0
9.5	-0.87999123167934	0
69.814512260285	-1.4981287529351	0
70.5	-0.72383564313856	0
69.5	-0.87999123167934	0
37.766438606046	-4.2420446360368	0
38.323318367536	-3.6629325607055	0
37.317228150182	-3.2527730110777	0
18.660876682739	-2.4485865433332	0
17.973891103907	-2.0858720306863	0
34.5	-0.72383564313856	0
33.5	-0.87999123167934	0
33.82089265562	-1.4893109599695	0
32	0	0
31	0	0
31.5	-0.72383564313856	0
63	0	0
62.5	-0.72383564313856	0
29	0	0
8.2591724084594	-0.57240813302758	0
8.4717521608692	-1.1637043844347	0
25.636907794928	-1.1637043844347	0
26.545908850676	-0.84827902524755	0
18	0	0
35	0	0
34	0	0
35.5	-1.035639322046	0
35.5	-0.39712126985623	0
8.59375	-5	0
8.2284843742807	-5.6954079513176	0
9.2120473878674	-5.7616053726018	0
88.86715199321	-1.5118713908803	0
88.545908850676	-0.84827902524755	0
88.240022049904	-1.3869160305262	0
39	0	0
38	0	0
38.5	-0.72383564313856	0
82.5	-1.6035731257308	0
82.787222661849	-0.81339272576872	0
81.859617859486	-0.9235091504576	0
39.178936177024	-0.65821172550344	0
40	0	0
73.5	-0.87999123167934	0
37.838881395377	-1.614016682557	0
37.5	-0.87999123167934	0
85.5	-0.87999123167934	0
46.586506244086	-15.544888464738	0
45.897004762753	-15.274502857094	0
46.242365614161	-16.066236831359	0
40.5	-0.79450420293268	0
41	0	0
42.336316025324	-0.77841763575814	0
42	0	0
41.5	-0.86924456999677	0
28.049909994444	-3.0971636398391	0
28.6201407176	-3.4158976952447	0
28.697344318677	-2.819200842756	0
47.082669887791	-2.7974079073529	0
47.718215066489	-2.4216118853314	0
55.29820719927	-1.2243985349803	0
55.462958025137	-0.53575875687739	0
54.708957913835	-0.71939852368266	0
46.5	-0.86613622554139	0
47	0	0
34.5	-1.6035731257308	0
43.383870027382	-0.99942956935236	0
43	0	0
30.193852140221	-1.685867763823	0
30.5	-0.87999123167934	0
29.5	-0.79450420293268	0
39.636907794928	-1.1637043844347	0
28.636907794928	-1.1637043844347	0
32.471752160869	-1.1637043844347	0
32.259172408459	-0.57240813302758	0
36	0	0
42.5	-1.6035731257308	0
43.150062298609	-1.6059943228901	0
99.216541783735	-0.93832625370525	0
100	0	0
99	0	0
50	0	0
51.36633623477	-10.430348179216	0
50.395739686466	-9.9127914651447	0
50.888950480693	-10.929453837339	0
53.125	-5	0
53.90625	-5	0
53.515625	-4.1909067796516	0
50.5	-0.72383564313856	0
51.178936177024	-0.65821172550344	0
51	0	0
59	0	0
58.5	-0.87999123167934	0
59.5	-0.72383564313856	0
53.809820284259	-0.82043874757067	0
53	0	0
52.97042001367	-0.88896063115205	0
52	0	0
57.8125	-5	0
58.59375	-5	0
58.203125	-4.1909067796516	0
59.685356368009	-2.3552730183094	0
60.184864531242	-1.8334000226725	0
59.5	-1.6035731257308	0
65.480446274744	-3.746956020991	0
65.397604712632	-4.3913727903498	0
66.015625	-4.1909067796516	0
55.688320335612	-1.7208360735363	0
56.052412511312	-0.92807366525783	0
62.191198962918	-17.629450334545	0
61.97033442114	-16.962653432129	0
61.488836385204	-17.638727419934	0
77.199748650767	-1.6833454461022	0
76.5	-0.79450420293268	0
76.335694148288	-1.6038411950301	0
89.5	-0.72383564313856	0
90.178936177024	-0.65821172550344	0
90	0	0
58.903203076339	-1.3755568411949	0
91.87779059209	-2.0374756078085	0
91.786472248634	-2.8418384889484	0
92.635076907602	-2.3235806946987	0
62.5	-1.6035731257308	0
61.5	-1.035639322046	0
60	0	0
88.428358251672	-1.977022828865	0
87.81210337459	-2.4859126529652	0
88.680915705612	-2.8441222012867	0
57.617409684993	-2.9989451531129	0
57.253248317521	-2.0382232162578	0
56.792848679262	-2.5141559481461	0
85.15625	-4.1239752993306	0
84.375	-5	0
85.15625	-5	0
55.070237772446	-1.8497253048321	0
72.854994751535	-4.3409935425948	0
73.542544478095	-4.3083690016643	0
73.15889432348	-3.7233900797355	0
97	0	0
96.5	-0.87999123167934	0
97.5	-0.72383564313856	0
78.092176686462	-7.4396929522299	0
76.91668548428	-7.4346980603148	0
77.122160183609	-8.1036752558685	0
63.5	-1.035639322046	0
63.5	-0.39712126985623	0
95.871660588887	-2.4317661613153	0
95.317788310629	-1.799119616642	0
95.074187220393	-2.603901984705	0
100.34287652722	-4.2057949291262	0
99.609375	-3.7472084955228	0
100	-5	0
64	0	0
64.5	-0.87991483452332	0
70	0	0
71	0	0
60.266756516738	-0.56662133718525	0
60.455729037659	-1.1637043844347	0
89.111390760283	-11.520208777499	0
89.123888571056	-12.24082576047	0
90.273201693507	-11.860476115499	0
50.5	-1.6035731257308	0
49.830637201342	-1.6178149192666	0
49.165318600671	-1.6106940224987	0
49.5	-2.1999905164872	0
65	0	0
69.329268142548	-3.2667956254483	0
69.53125	-4.1056296801845	0
70.183751368423	-3.3330207081993	0
48.5	-1.6035731257308	0
67.5	-0.72383564313856	0
68.471752160869	-1.1637043844347	0
68.259172408459	-0.57240813302758	0
45	0	0
45.5	-0.86602541087424	0
46	0	0
75	-5	0
75.78125	-5	0
75.116419049585	-4.2286559063481	0
67	0	0
68	0	0
85.892944639815	-1.3897341397271	0
52.066263321	-3.3496835719921	0
52.04402323882	-2.5274719722249	0
51.459997217796	-2.9546759362968	0
82.616732108533	-10.571859929582	0
82.504036062846	-9.731842418482	0
82.028947408824	-10.592521143928	0
3.6369077949277	-1.1637043844347	0
74.5	-1.6035731257308	0
75.178936177024	-0.65821172550344	0
1.165318600671	-1.6106940224987	0
1.830637201342	-1.6178149192666	0
-3.1957427306939	-3.746065592173	0
-4	-4	0
-3.5737577401904	-4.5	0
76	0	0
0.390625	-4.2662473623192	0
0.78125	-5	0
1.1039939358816	-3.8395324864973	0
81.507225003929	-4.3893767286684	0
80.99571266894	-3.9682109497972	0
81.25	-5	0
77	0	0
75.636907794928	-1.1637043844347	0
-0.5	-0.53111975661513	0
80.5	-0.58353536918725	0
79.680179395983	-0.78001624166945	0
80.230032816598	-1.2656914333177	0
-1.5	-0.97161533064078	0
-1	0	0
-0.36088003840433	-3.619390120191	0
-0.40137781331295	-2.9415414514279	0
85.05246832565	-1.9827909224857	0
85.622324529685	-1.9736931093967	0
85.276387636588	-1.4586926438499	0
23	0	0
87.178936177024	-0.65821172550344	0
82	0	0
10.5	-1.6035731257308	0
81	0	0
81.26790429128	-0.61245813749155	0
6.0204421994995	-2.8882426746132	0
6.7707844722078	-2.9859158936402	0
6.4701916893529	-2.2915114273357	0
80.961273195714	-1.2064741732161	0
22	0	0
22.5	-0.86613622554139	0
87.636907794928	-1.1637043844347	0
88	0	0
89	0	0
21.255720702965	-0.57418292844855	0
21.473765574904	-1.1637043844347	0
91.097802297013	-0.66901283862594	0
91	0	0
94	0	0
93.564806735869	-0.59390246129104	0
94.688715155011	-0.78267772273653	0
90.182846344996	-1.6793034683712	0
90.948031569968	-2.1986944251589	0
90.636907794928	-1.1637043844347	0
25.079198979612	-1.4114110573738	0
24.5	-1.6035731257308	0
[...]
CELL_DATA 10997
SCALARS Coverage double 1
LOOKUP_TABLE default
1.6074710775537 -0.2607135814165 0.6991953469649 -0.29589211107928 -0.19510464168949 1.5810514733243 1.2752304509989 0.20501104976422 1.1146390812527 1.5548720396756 1.2199887290271 0.2083635350837 0.43694813068244 1.5984237949784 -0.25667023937343 1.5311407139619 0.27144053111361 0.14119990270258 0.023383749422481 1.1980415258986 1.5557847043598 1.5991960307911 -0.26856906321924 1.6100198065352 -0.11331609479226 0.8674626410917 1.1957741170005 0.53292158579016 1.6087628018683 1.0164715861396 1.4884405138622 0.36671977878369 0.1388935856518 1.0436789320589 -0.17665732991731 1.0853279360564 1.5395167204123 1.5050509699646 1.5674949625154 1.6970836450076 1.0188649585053 -0.10465142901713 1.1123460520632 1.5991819433131 1.1565772147449 0.43296948369255 1.5478917138988 1.117631309987 1.2528157077407 0.47646261464559 0.32104954764449 1.5784067408789 1.2983877526703 1.1302409454945 1.086212710231 0.55298376464179 0.90867239695195 1.5303105611285 1.0501089012441 1.0358735542582 1.0728036277908 0.47045866080658 0.89728642277012 1.0965339821517 1.6440715691907 1.5902490791354 1.548599949545 1.0348237784508 1.1582771966396 1.0705840479533 1.6075028994562 1.5507406865184 1.2570725415307 0.34627057063332 0.93486717664726 1.5857447923804 1.0741920891012 1.6179651605177 1.2749058315694 1.0589536168349 1.1037428542271 1.0348081878408 -0.22199936702511 1.6139726236299 1.0718545118186 0.59348008074383 1.1163576580195 0.68365065126308 1.0721949852444 1.2066217779798 1.249210817178 1.0411567942258 1.1807372328108 1.0620974102275 1.1305459106578 1.1951106302521 1.0643288806786 1.2283663676234 1.5216966830012 0.98535405149835 1.2157878109974 1.5385490825671 -0.10251214558367 0.50570235051175 1.2658813091382 1.308133421256 1.2491147111512 1.6321115309217 0.4480885625235 1.5085242284683 0.94421099837928 0.41780320176195 1.0323559668322 -0.32561437746476 0.96073428761329 1.0810810055452 1.1891601811611 0.73914733772282 1.0427344215505 1.6549007767157 0.75644235506298 0.73687804436286 0.34477287134621 0.96725518801317 0.41342274285278 1.1878898769148 0.14578814932593 1.2743338521478 0.71734744667821 -0.075632374081578 1.1070437897738 1.5418323921072 1.577347399845 1.1076900093931 -0.14558095106944 0.97144673787812 0.90816115966523 1.5080138948922 0.50106818957415 1.0184476236751 1.0329459073893 1.0799739897551 1.6153993113484 0.35600570414817 1.1168974066804 1.6048619715624 1.6455706347995 1.5694052732735 1.0041271906626 0.65699557937491 -0.069297633146425 0.98669059980987 1.0716099655801 1.289480327048 0.75817672320503 -0.39553606079402 1.5916544681945 0.029861163205806 0.38050766444569 1.5999382350122 0.8049486593702 1.1490532401644 0.82170612239635 0.58234489218279 1.0676875790294 0.36449490398676 0.62739242187254 -0.051057727097886 0.88253800439349 1.5910821901323 1.2954436424163 1.1453330077329 1.0732854478874 1.6346868168569 0.62444153343794 1.0550579707126 -0.11516658324795 1.5287232334887 1.0605318886053 1.6426574328914 1.2245852632013 1.1598049109552 1.3401241846615 1.3553678083039 0.9710565749385 0.91120062761845 1.0027441126969 1.6636842205661 0.7638851429593 1.6323057158048 1.6087190393308 1.5306470709986 0.92040611198177 1.6115990255995 1.5578294284201 1.2741811079495 0.86349560035476 0.92379480009998 0.85400126901336 1.0627776200054 1.0308537917919 0.98105586094701 1.6216991050151 1.1776705678239 0.86416545757681 0.75972918730196 1.3640016976769 0.96542489193585 1.0220313458172 0.17588500144415 0.40763700913776 1.0803473916389 1.1478615443922 1.4769455924287 1.166848945396 1.2641195791155 0.91682915369599 0.35879393495301 1.2529576775498 0.97593280277845 1.4313271736495 0.27206114776166 1.2491538149216 1.4752861668092 1.0407849880076 1.5900522656713 0.95984785920117 0.58865829691876 1.1196127866087 1.1720355734063 1.3993936836803 1.5963379810751 1.1474983445749 1.5133833182609 1.2455485753636 0.49447258050789 1.1186948883258 0.94587934033431 1.3718615842029 1.2762487037327 0.80407925466846 1.2531378703403 1.0329945334076 1.5952095138416 1.0190063146707 0.73241040939165 1.1663720991598 0.90345214802003 0.8432025124845 0.95226882292971 1.2413891728625 0.087826802267839 1.5203611831031 0.90684589356269 1.0336511404723 1.5307152402046 1.0212042511286 1.3647305583656 0.95174123857816 1.5986932251048 1.1272628800758 1.2597562286645 0.94979546311031 0.95513543607572 1.1131960693513 0.94790962917719 1.3996588430373 1.2667971941899 1.1342633764196 1.5462534219621 1.068339129328 1.212010217258 1.1815693604481 0.91987143087113 1.2230903232866 1.3401377801021 0.45097836180584 1.1093512915799 0.47735956977949 0.42441392153821 1.2445483200094 1.288574717108 1.186635376878 0.39410026280689 1.2034727966693 1.085424166517 1.2674649179553 1.2613414992541 0.96295381951154 1.5629816619286 1.0140791618321 0.93817488220067 0.78985421870909 0.77512418895666 0.32843337077213 1.1091537061873 1.2169867894568 0.94449380631022 0.27692101465186 0.50099479402736 0.43696374542452 0.68561674191072 0.97329712942263 1.5810062873758 0.80941363473803 1.2712575719851 0.79795781337822 1.1171665377247 1.0978666775252 0.48599869400634 1.2821763336467 1.1999867256904 1.1805289436461 1.3081991775297 1.0552614309949 0.4725544862048 0.48543908177645 0.86209520143456 0.44570011991671 1.1425218309062 1.0597647165182 0.28644173054632 0.96471501109379 0.79725222462119 1.3984927403647 1.2087494285725 0.85926985225689 0.40841484104822 0.84508168722705 1.4845689821079 0.57840641689605 1.0082360255858 1.5028911075505 0.97678128434565 0.68483218983559 1.2652775848152 1.3836368943314 1.0028084446874 1.081066654705 1.1408401700643 1.3459616161816 1.0535841140056 0.94215418602906 0.69781565818039 1.3169037932856 1.0710644043992 1.6640549259359 1.091481679853 1.1558418382916 1.2611294758728 0.44534889749153 0.87143551016372 1.3590130826772 1.0299356803896 0.40920373771894 0.44760889768479 0.90604318935309 1.1029688141127 1.0031317974347 0.94505967937462 0.9518821788339 0.92047881922138 0.84387994977184 0.9636824434835 1.2726352144643 0.65765187207546 0.65754417204999 0.91947322949562 0.59343628491968 1.0736564092826 0.25698116191535 0.9596413349559 0.73023270885265 0.58123812443601 0.85290369309819 0.50166064202839 0.7688640532232 0.3989368211345 0.8357219034488 0.42161097493924 0.69958801762723 0.61626502322044 0.70976691365788 0.64991397693072 0.7982570299 0.47418663718407 0.87445629248844 0.94981865738559 0.41942633941964 0.37960418112414 0.88058608525989 0.99356469791379 0.79196849363191 0.80682211399706 0.96997012873439 1.6172455976152 0.41776827905808 1.093299658145 0.51581689634436 0.42986913924052 0.91981225125608 0.67162769303188 0.97476165550817 1.5323691468292 1.1029387439089 1.0844828048168 0.20764587346282 1.0636515325451 1.1624057748545 0.38676392757534 1.507634509576 0.2577749156339 0.93081750993451 1.5252362591849 1.0268055325327 1.4548560843787 0.49992146582226 1.1314679130645 0.95531457525362 0.85017081226321 0.55529745748978 0.81892627661411 0.73537901577524 0.95478177296628 0.68499189536497 0.67318555374195 0.94089532232774 0.17510646200897 0.93047847543402 0.86534379595664 0.74298678102432 0.63469345544319 0.50346870755395 0.33047409566702 0.34828041082055 0.65814945634546 0.39866863646732 0.53939140273911 0.45542665607371 0.35298084033256 0.35160404929504 0.41751598563987 0.43916770219596 0.39060428689951 0.5639161231869 0.38810569672302 0.12320674870672 0.39093540310433 0.34860401460771 0.35440066695085 0.47350994362919 0.45110063287557 0.68467707493385 0.73494179843124 0.93753078583033 0.50138306443542 0.51496614519993 0.67593710436723 0.41315933978152 0.3528058433103 0.59855260127302 0.44707075695615 0.44650524619143 0.37975942165604 0.80797225752852 0.70859074861886 0.98627990394792 0.84275024525095 0.64450536124936 0.75337813486315 0.93443378011956 0.61207833306649 0.55348552768936 0.58406853835268 1.1627995331495 0.86914513659339 0.78982440024066 0.92838218206397 1.0191073481613 0.65845454770158 0.51741961712519 0.35180557417809 0.77271635560726 0.38219941092449 0.20603721526279 0.30760148452278 0.37749021709058 0.46898162131472 0.35426207641279 0.25002547900654 0.14414407236965 0.080053487163878 0.24421335859153 0.37513315975504 0.18307201075967 0.094150712103128 0.18969656448082 0.30799853758594 0.022141909630078 0.25342581269483 0.26024320619337 0.10900625534244 0.33990795659551 0.12876076581711 0.15719418641061 0.20312790080525 0.17112720023746 0.23023327170307 0.27364627996027 0.22181834347659 0.13225710047083 0.28860582119841 0.23842750903292 0.2348752335047 0.081814063521063 0.16000819003686 0.13659740385862 0.06311143000541 0.061542469597035 0.20983679058203 0.085074227707614 -0.016366987200112 0.062342968866724 0.075642599946387 0.18184546628493 0.30769683699439 0.1543791435507 0.014309166431811 0.37825066604185 0.1669883241002 0.26116005120844 0.24816752568413 0.4083844823806 0.11638113837096 0.18477957982548 0.30966158552112 0.19211341441482 0.21408404053715 -0.0066545910928663 0.074856140829803 0.051278821131323 0.097495128585633 0.1213635794469 0.35933397891289 0.20418965552579 0.21888330567812 -0.11462112042291 0.14913262780507 0.060423518027556 0.094738679124979 0.18869596071757 0.13313532945421 0.29016453868019 0.32917517609338 0.30373325739605 0.34920249037059 0.36814819437719 0.25332591443358 0.39439651700181 0.35288404438541 0.46845621921381 0.68544589784947 0.46788457288632 0.98991150575413 0.29386515249574 0.3588704388516 0.043382297507975 0.2942745144963 0.0076655245914979 0.10378916303402 0.1383579490981 0.20027203259981 0.14421934861719 0.32763086830717 0.20523140595732 0.27681950100182 -0.10223863869159 0.11144071620162 0.31123022146027 0.074167398057096 0.050678746118252 -0.048078128419224 0.089131115637693 0.32587350753736 0.2554926579374 0.15900002084161 0.09563298061761 0.0021991207397535 0.16818940768839 0.15824550385616 0.19599727527658 -0.050120781645602 -0.078642560448658 0.21703088206336 0.34734790941755 0.36409901850578 0.45876052764943 0.26657848122769 0.021113632274414 0.093717665277841 0.00016520796985907 -0.036647560122698 -0.0011072788117094 0.019431531056932 -0.090795778925739 -0.0073110360341782 -0.072210012831161 -0.081619547678287 0.040945924724607 -0.19821017904292 0.1852004818108 0.036878831209256 -0.017169823812096 -0.1312899256544 0.1539715535204 -0.032551982399542 -0.069047296966969 -0.067298815228445 -0.084035545794485 -0.1127074345397 0.3079329530579 0.012200830661093 0.020416815351816 0.3489678166868 -0.061523275888829 -0.097832364505885 -0.15746786186364 -0.030133668097254 -0.15478843274613 -0.20894485727576 -0.043345189435604 -0.06497082868731 0.18635354867574 0.1581630730666 0.19291857508823 0.28560966642514 0.48215752638161 -0.085328873862556 -0.054666740047336 0.33026621331573 0.23050488994942 -0.076556890696406 -0.12075130866362 0.10961570106523 0.054760318007289 -0.038212448249163 0.092359784965457 0.030447342049769 -0.12916076823802 -0.055482088733241 -0.16386777374651 -0.070713628048931 -0.088661065397983 0.1256663329021 0.056073736270305 0.035360097735734 0.060950488233017 0.085811755524958 0.033037167587823 -0.035678600416691 -0.082387685882319 0.080446104256917 -0.013139837204826 -0.055903502695384 -0.17637041247382 0.24415445853599 0.13483456926376 0.27850782038374 0.23047435034317 0.044607442023261 0.01347224147728 0.10860645656756 0.1049313912039 0.039411759977075 0.039784571435877 -0.043142565762962 0.0026891145680696 -0.18270795640616 -0.18569439022174 0.071026759771685 -0.011110748505078 0.062201528785872 0.044162119151789 -0.024115840594769 0.00012061389804628 0.047476670088142 0.030557594956325 -0.034961680412525 -0.048459562234882 0.016382910852465 -0.012410407559765 -0.075098832141176 -0.094986021944983 -0.10138634923935 -0.26269627790195 0.28187979985707 0.41542657358387 0.2824526045976 0.23376061170921 1.1308912125565 0.42233354770503 0.45856025124692 0.41090700279596 0.070626127107326 -0.025949223060766 0.098915475081795 0.048887011558712 -0.27381074667951 -0.32534933877678 -0.0056660258234123 0.11941353142486 -0.02059029699855 -0.10362666591584 -0.037912120560091 -0.059297987810126 -0.10425507750457 -0.084274094386801 -0.086921948636665 -0.12902124770838 -0.07152314114092 -0.034099695174501 0.0073239663303852 -0.083504838568681 -0.30974894473551 -0.20171583004039 -0.13735206107587 -0.22007504098876 -0.044216648087659 -0.10749700304424 -0.07487039911544 -0.12712622840684 -0.097732121888864 -0.11661574237624 -0.20037617945797 -0.1720798452929 -0.04448376876254 -0.2348020577058 0.014298399588449 -0.017110719413848 -0.20821250892152 -0.21976660160766 -0.24196054511155 -0.29769096083429 -0.23171898967011 -0.26477498007668 -0.19562904454068 -0.24749766051791 -0.15346952262886 -0.18706809333147 -0.21842339615155 -0.27569766471228 -0.13503721384729 -0.16043696417608 -0.14151251442207 -0.15488843815979 -0.23825545751272 -0.21007153608045 -0.29936443451712 -0.2781940175715 -0.28551235592413 -0.15315402730663 -0.35845181225883 -0.10770725255991 -0.39566637821571 -0.18356244992387 0.70746775421184 0.91626120893532 -0.016797850378345 0.04359119228009 -0.020005715201347 0.022483529646908 0.069589537348344 0.084510060101814 -0.053920942080204 0.1270243663036 0.034876404594722 0.29718497745704 0.10223254468362 0.083115303342971 -0.07049304378805 -0.047513476486905 0.042266929496287 0.062644887174091 -0.052914902007357 -0.02865893690818 0.020133850984294 0.023196117354582 -0.11533291285028 -0.14421789552581 -0.1813275180067 -0.096729283821063 -0.13989896664731 -0.13275123497043 -0.38106720537297 -0.21557110247231 -0.15159593617475 -0.11191339973305 -0.16327161218245 0.0091945186788273 -0.10422613311733 -0.036490255631579 0.027895395980883 -0.0042081556939332 -0.25386968014081 -0.40817473185342 -0.20643785995198 -0.12525236499389 -0.38922802200385 -0.33612491704941 0.56520308089654 0.50042749979617 0.81391148146381 0.99472048781049 0.40300147873682 0.41249064544242 0.58762396408803 0.18331424242322 0.93721035074598 0.6981345632015 0.40152320872624 0.41757384150451 1.0337964551859 1.0167482644787 0.72546102672738 0.82437110338684 0.40529188135684 0.2780925141472 0.22240777504115 -0.27887285292177 0.23634607936819 0.17285550970836 0.16887872783426 0.12299558780256 0.093930666568599 -0.022254717488585 -0.18310281709898 -0.16453923757769 -0.069744304939881 -0.0014238066541393 -0.10213511595546 -0.11599272598011 -0.042695623136572 -0.010218555681715 0.23385873181857 -0.06324724005857 -0.18864205144772 -0.25769611750638 -0.21883265115544 -0.21640096539729 -0.39608503079155 -0.39173218540421 -0.33374498771872 -0.33598959550355 -0.38172991279654 -0.36632956869646 -0.32457096877499 -0.43971935937081 -0.3636368511595 -0.28780911904325 -0.35222682773945 -0.42952639245008 -0.38634394984442 -0.35089318491705 -0.34904895768714 -0.36377665743863 -0.31004126252736 -0.32628758036445 -0.39180732305489 -0.4375868295122 -0.43165477806126 -0.42184072767141 -0.46956599424683 -0.48473277000658 -0.30467862668109 -0.42066729098284 -0.19632438451174 -0.22059864058102 -0.23388854371785 -0.31420766015043 -0.30060071751875 -0.27697812921712 -0.33074330839711 -0.43591397363056 0.065219955985576 0.16931513658943 0.0037845865375931 0.090815990978767 0.14002305822989 0.26560101506273 -0.11334135460434 -0.16165426625281 -0.13453928347958 -0.15434654874304 -0.20391736359756 -0.17008448705666 -0.055197206967489 0.014558844794456 -0.12960899643144 -0.066071583046862 -0.16295629707367 -0.14227836141544 -0.13873182316815 -0.16635528214768 -0.19158116878767 -0.22111381180175 -0.19962156786326 -0.37449650131723 -0.20691642822988 -0.31422641813986 -0.22328242274341 -0.18488872882267 -0.22647873918474 -0.21503909127917 -0.25913419364767 -0.26001473435194 -0.29105796947601 -0.17436671760546 -0.42405601288299 -0.23146445746258 -0.27807530163714 -0.3837841491508 -0.38416178994717 -0.48249063714539 -0.11362491918191 -0.11990098962208 -0.097343851236071 -0.061850299979154 -0.25215252947104 -0.26808944766154 -0.13958341526684 -0.18494561989695 -0.19204636713079 -0.25001834526515 -0.21266032326882 -0.23502649009842 -0.23996657223356 -0.2977681706784 -0.41015778474201 -0.2936382991791 -0.30870466377181 -0.047937792783355 -0.31983584471125 -0.32172506873323 -0.39933294033446 -0.34094109598128 -0.45917607147977 -0.39001703665747 -0.40709770863622 -0.41974573980469 -0.44421760177553 -0.43403382898304 -0.48316304990412 -0.45265511767589 -0.47781940755178 -0.27035531225083 -0.44778580127771 -0.50840530803224 -0.46869473606131 -0.29725458984941 -0.28437253153397 -0.41599720831026 -0.2318748163833 -0.29111718600012 -0.39801625825114 -0.35413576923098 -0.27057501874776 -0.28736617288881 -0.2313675986351 -0.24490338093612 -0.18137947833265 -0.20287191502432 -0.13478006123913 -0.23848507498326 -0.17361629856496 -0.20576320639422 -0.21964376008659 -0.46763405192696 -0.02995391506167 -0.27243636972856 -0.40927110344369 -0.44806715144914 -0.3708504905323 -0.42064957113627 -0.49147323459557 -0.48022841637702 -0.35022330539037 -0.37963901756295 -0.43168970327364 -0.47287886538179 -0.42214250761067 -0.53263871311964 -0.59087516018836 -0.50881383634172 -0.28515088484675 -0.3195122315575 -0.27711311992721 -0.24398320802249 -0.36326890773408 -0.37685267790921 -0.29116103120983 0.027674961737825 -0.25569000596746 -0.3361289624201 -0.24774946341943 -0.26895633999603 -0.25905528036077 -0.25991673363013 -0.28519261101101 -0.29355823587562 -0.2957164874025 -0.42496964827158 -0.34711720223452 -0.15828713341176 -0.30924407179128 -0.45327268510778 -0.31816574342293 -0.27373376244564 -0.36555485735734 -0.34156976746965 -0.23792775606905 -0.27316229660992 -0.52909844472058 -0.37462186011743 -0.18716819127184 -0.19469770713405 -0.20324958167171 -0.53480931876144 -0.19721712175954 -0.24518273191576 -0.072043932776582 -0.32580251012175 -0.3607105372003 -0.39831548297938 -0.52438912599025 -0.55714903766908 -0.40108727953651 -0.52289384419862 -0.14723396095313 -0.20019381166858 -0.11894040568703 -0.14886833133884 -0.11630529440381 -0.01459158463089 -0.15975312137667 -0.24493274543711 -0.02889236715222 0.045045994953566 -0.58894073227266 -0.38635786492567 -0.31644022214475 -0.10423814775776 -0.38937339171789 -0.34483813122575 -0.50543656296224 -0.48135244142299 -0.55242267937243 -0.46276521165879 -0.37489676542923 -0.3504819269773 -0.68663359605073 -0.61771721399555 -0.49485816906714 -0.5267361939074 -0.4487336768096 -0.52077506474348 0.30908202318312 -0.36134153504683 -0.1962823960986 -0.1986198128719 -0.34363800561575 -0.39315195241548 -0.37231091944573 -0.40674474520182 -0.45918838450222 -0.45128441482026 -0.30322921012048 -0.23121336042757 -0.40515290150495 -0.4507397478388 -0.38049356724642 -0.37944970674833 -0.36883782524434 -0.34188536127958 -0.41592923298661 -0.32733867156308 -0.44405686085213 -0.36123650953214 -0.36778977270081 -0.38237911364522 -0.40049656302819 -0.35318164449079 -0.35001761189688 -0.27591227100645 -0.33036191645252 -0.28589356312128 -0.32667505134312 -0.32886458812749 -0.32211164149494 -0.24124711530819 -0.3103808637102 -0.29213472358396 -0.31144029099714 -0.28726786446407 -0.27948639978387 -0.32352883617274 -0.2525963847332 -0.27247035887775 -0.26437682219029 -0.1619550560806 -0.24204253765708 -0.23204476173871 -0.34878632195272 -0.30830319263264 -0.42724874987161 -0.50877373829039 -0.39572432273393 -0.42873957958114 -0.43830515444849 -0.42526247047948 -0.4567583595479 -0.42943435662836 -0.48272701035931 -0.4782258313065 -0.36861552976591 -0.58782236611484 0.19486388219674 -0.082678943683444 -0.22243287632157 -0.15321996848878 -0.25383556728746 -0.17971461283712 -0.13262258902453 -0.096473045831445 -0.24285907123397 -0.20250613344269 -0.23747273996683 -0.11623932303841 -0.14474025136104 -0.103424760367 -0.06352797931727 -0.10180469026912 -0.054306497099894 -0.035688437910552 -0.057503127408873 -0.17097884245289 0.34260553252871 -0.086467718455819 -0.13539358325028 -0.083428562662468 -0.26048267331346 -0.028922352758855 -0.34182741735637 -0.35158187856698 -0.32733033603939 -0.296913673752