# vtk DataFile Version 3.0
d-2__ created by libgimli-v1.5.0-1-g5991b6ac
ASCII
DATASET UNSTRUCTURED_GRID
POINTS 3056 double
16.047984885364	9.2005108665658	0
16.227640130622	9.31797770521	0
16.052808675398	9.4151062914457	0
9.6856707273838	12.779965388042	0
9.5840448320983	13.008863982168	0
9.459889155087	12.888340064957	0
9.4017034496321	12.989518397958	0
9.4966291044861	13.057428275285	0
9.409213376874	13.105992568403	0
6.9615730037337	14.465792775704	0
6.8666473488796	14.397882898376	0
6.9945996683525	14.319328169198	0
10.283370652996	12.620349637225	0
9.9337077425469	12.814606809696	0
10.035333637832	12.585708215571	0
10.370786380608	12.571785344107	0
10.246630703596	12.451261426896	0
3.2	14.888006064741	0
3.3935321886838	14.815842352641	0
3.3	15	0
10.363276453366	12.455311173661	0
3.05	14.894536113346	0
2.95	14.834347813918	0
3.0997032337695	14.698789777549	0
22.54986393823	5.4610590293129	0
22.601478319067	5.6563101371606	0
22.484832569298	5.6522603903955	0
7.8357302798552	13.980149844525	0
7.7483145522431	14.028714137643	0
7.7115746028439	13.859625927314	0
8.7098875559768	13.494506913346	0
8.6224718283646	13.543071206464	0
8.5857318789655	13.373982996136	0
21.698091020789	6.0893390284563	0
21.734830970188	6.2584272387846	0
21.639905315334	6.1905173614571	0
4.9002967662305	14.698789777549	0
5.05	14.834347813918	0
4.95	14.894536113346	0
8.5275461735105	13.475161329137	0
8.5350561007525	13.591635499582	0
23.708017310135	5.0679061559452	0
23.57570494199	5.2584272387846	0
23.492391392804	5.1534065041647	0
7.9373561751407	13.751251250399	0
5	15	0
4.9	15	0
25.208739718026	4.888006064741	0
25.308739718026	5	0
25.108739718026	5	0
6.7500015991102	14.393833151611	0
6.8150329680421	14.202631790528	0
7.6608988246309	14.077278430761	0
7.653388897389	13.960804260315	0
12.90584248136	11.163420843689	0
12.869102531961	10.99433263336	0
12.993258208972	11.114856550571	0
14.304494123155	10.386392153803	0
14.40612001844	10.157493559677	0
14.654157033603	10.192134981332	0
11.237433729487	11.969668242483	0
11.18581934865	11.774417134635	0
11.36538604896	11.891113513304	0
11.120787979718	11.965618495718	0
11.885664010266	11.385614544848	0
12.082360983452	11.431411271421	0
12.024175277997	11.532589604422	0
13.080673936584	11.066292257453	0
12.98574828173	10.998382380126	0
13.867415485094	10.629213619392	0
13.77248983024	10.561303742065	0
13.830675535695	10.460125409064	0
10.909490913954	12.100065284392	0
10.844762499738	11.765076855645	0
12.934133900893	10.803131272278	0
3.6	14.810067208388	0
3.7	15	0
3.5	15	0
12.657805466197	11.128779422035	0
12.556179570912	11.35767801616	0
11.244943656729	12.086142412928	0
11.157527929117	12.134706706046	0
1.3	15	0
1.2	14.888006064741	0
1.4	14.810067208388	0
1.9	15	0
1.5	15	0
1.7	14.849260526121	0
12.119100932851	11.60049948175	0
2	15	0
2.05	14.894536113346	0
2.1	15	0
12.031685205239	11.649063774867	0
1.0997032337695	14.698789777549	0
1.05	14.894536113346	0
0.95	14.834347813918	0
11.332359384341	12.03757811981	0
5.7	14.849260526121	0
5.5	15	0
5.503868896942	14.598288840263	0
4.064468339761	12.492321883392	0
3.9817116885018	12.918420923089	0
3.7670358212135	12.67328000924	0
13.779999757482	10.67777791251	0
25.602637769837	4.524993056905	0
25.708739718026	4.8492605261212	0
25.458739718026	4.8343478139176	0
14.734062833973	10.027096517768	0
14.682448453136	9.8318454099206	0
14.862015153446	9.9485417885899	0
-0.24940646753892	14.834347813918	0
0.05	14.834347813918	0
0	15	0
15.804771660235	9.3804648697915	0
15.703145764949	9.6093634639172	0
15.578990087938	9.4888395467067	0
29.767533861964	4.3398980943704	0
29.508442951795	4.548348532907	0
29.495546029131	4.1485808085627	0
0.1	15	0
0.3	14.849260526121	0
27.458739718026	4.8945361133462	0
27.358739718026	4.8343478139176	0
27.508442951795	4.6987897775495	0
0.5	15	0
16.678928936356	8.8948219386129	0
16.4287009421	8.6628888321103	0
17.028591846805	8.7005647661415	0
1.1	15	0
1.95	14.834347813918	0
20.105956534257	6.4151422964054	0
20.247470662652	6.669867727517	0
19.925330046586	6.7203171073957	0
21.501394047603	6.0435423018831	0
24.087916739041	4.9470663132613	0
23.750549209437	4.5440302871062	0
2.3	15	0
2.2	14.888006064741	0
2.4	14.810067208388	0
26.308739718026	5	0
26.358739718026	4.8343478139176	0
26.408739718026	5	0
25.008739718026	4.8100672083876	0
24.908739718026	5	0
3	15	0
2.9	15	0
1	15	0
21.472583787351	6.4041201181382	0
21.297752332127	6.5012487043739	0
21.301387084399	6.2885606170178	0
19.199774869435	7.6667917392027	0
19.112359141823	7.7153560323205	0
19.104849214581	7.5988818618751	0
6.1791038580454	14.704649136022	0
6.0874157276122	14.951435706882	0
5.95	14.834347813918	0
6.8741572761215	14.514357068821	0
6.7867415485094	14.562921361939	0
16.402471585846	9.2208491189743	0
16.260666795241	9.171513098704	0
16.394961658604	9.1043749485289	0
6	15	0
28.922845333402	4.5823118347521	0
28.708739718026	4.8492605261212	0
28.602637769837	4.524993056905	0
4	15	0
3.95	14.894536113346	0
4.05	14.834347813918	0
28.108739718026	5	0
28.208739718026	4.888006064741	0
28.308739718026	5	0
7.136404458958	14.368664189468	0
7.1315806689246	14.154068764588	0
7.3112359141823	14.271535603232	0
23.945942620228	5.1435706882137	0
23.403806383266	4.93902940218	0
3.9	15	0
4.1	15	0
27.608739718026	4.888006064741	0
27.80227190671	4.8158423526409	0
27.708739718026	5	0
17.36404458958	8.6866418946778	0
17.356534662338	8.5701677242324	0
17.451460317192	8.6380776015599	0
5.3	14.849260526121	0
5.1	15	0
14.617417084204	10.023046771003	0
5.9	15	0
6.5387045333462	14.528279940285	0
14.998996154018	9.7832823839802	0
15.178651399276	9.9007492226244	0
15.003819944052	9.9978778088601	0
4.3	14.849260526121	0
27.508739718026	5	0
16.453147364059	9.0031966155281	0
16.256450390874	8.9573998889549	0
22.871235429146	5.6270914282524	0
22.72943063854	5.5777554079822	0
22.866411639112	5.4124960033725	0
21.122920876903	6.5983772906097	0
20.948089421678	6.6955058768454	0
20.981116086297	6.5490412703394	0
1.8827233936571	13.413209492963	0
1.635985724768	13.057931042977	0
2.0585343714792	13.116469985366	0
13.63397856251	10.414328682491	0
24.321832839145	4.8833962425865	0
24.408739718026	5	0
24.316180298466	5.0287141376427	0
24.708739718026	4.8492605261212	0
24.508739718026	5	0
24.458739718026	4.8343478139176	0
23.483145522431	5.2871413764274	0
9.2631921819019	12.842543338384	0
25.358739718026	4.8945361133462	0
25.408739718026	5	0
25.508739718026	5	0
12.206516660463	11.551935188632	0
3.1	15	0
12.308142555748	11.323036594506	0
24.679068235604	4.239790780138	0
25.006267059794	4.3425605622482	0
24.599747236054	4.5734506034563	0
22.521572518697	5.8213486007239	0
22.608988246309	5.772784307606	0
11.502367049532	11.725854108695	0
11.68202229479	11.843320947339	0
11.507190839566	11.940449533575	0
10.491228772839	12.376756444483	0
10.633033563444	12.426092464753	0
10.45820210822	12.523221050989	0
22.696403973921	5.7242200144881	0
23.395729794819	5.3357056695452	0
23.358989845419	5.1666174592169	0
2.8061019481889	14.524993056905	0
2.7	14.849260526121	0
26.108739718026	4.8492605261212	0
25.908739718026	5	0
0.9	15	0
26.458739718026	4.8945361133462	0
27.308739718026	5	0
27.408739718026	5	0
29.358739718026	4.8343478139176	0
29.408739718026	5	0
29.308739718026	5	0
26.508739718026	5	0
27.108739718026	4.8492605261212	0
27.214841666215	4.524993056905	0
28.408739718026	5	0
28.358739718026	4.8945361133462	0
28.458739718026	4.8343478139176	0
28.508739718026	5	0
21.923872593085	5.9809643515411	0
21.8222466978	6.2098629456668	0
26.708739718026	5	0
26.608739718026	4.888006064741	0
26.808739718026	4.8100672083876	0
28.908739718026	5	0
29.108739718026	4.8492605261212	0
14.056457107991	10.351750732149	0
13.954831212706	10.580649326274	0
29.658146185565	4.8343478139176	0
19.54461398985	7.2579391418513	0
19.724269235108	7.3754059804955	0
19.549437779884	7.4725345667312	0
21.647415242576	6.3069915319025	0
13.250681601775	10.754568246337	0
13.430336847033	10.872035084982	0
13.255505391809	10.969163671217	0
9.2674085862685	13.056656548133	0
16.489887313458	9.1722848258564	0
16.577303041071	9.1237205327386	0
17.626291772416	8.5409490153242	0
17.484486981811	8.491612995054	0
17.621467982383	8.3263535904443	0
21.284504402929	5.7190625713937	0
21.673644598829	5.7490312450385	0
17.276628861968	8.7352061877956	0
16.926965951519	8.9294633602671	0
17.239888912569	8.5661179774673	0
18.11404618869	8.0804750462887	0
17.902749122926	8.2149218349628	0
17.83802070871	7.8799334062158	0
18.238201865702	8.2009989634992	0
18.150786138089	8.249563256617	0
8.5612854570062	13.033675212718	0
9.0547266763919	13.085654315995	0
8.8115134512622	13.265608319221	0
14.741572761215	10.143570688214	0
9.2343819216497	13.203121154639	0
9.0595504664254	13.300249740875	0
9.4354427331278	12.548032281539	0
9.6630878033521	12.327490919146	0
15.615730037337	9.657927757035	0
15.520804382483	9.5900178797075	0
9.9706052236163	12.250719786823	0
14.828988488828	10.095006395096	0
15.528314309725	9.7064920501529	0
19.986516417945	7.2297131011419	0
19.949776468545	7.0606248908135	0
20.073932145557	7.181148808024	0
20.175558040842	6.9522502138984	0
25.309036484257	4.6987897775495	0
20.860673694066	6.7440701699633	0
20.853163766824	6.6275959995179	0
22.273535503534	5.7867071790697	0
22.208807089318	5.4517187503226	0
3.1317176073544	14.309812537406	0
20.736518017055	6.6235462527528	0
19.891590763091	7.1618032238144	0
19.899100690332	7.2782773942597	0
28.008739718026	4.8100672083876	0
27.908739718026	5	0
18.23069193846	8.0845247930538	0
28.309036484257	4.6987897775495	0
27.895939159663	4.4709363375124	0
28.265207298324	4.2898533340251	0
18.988203464812	7.59483211511	0
23.147692779655	5.301064247891	0
23.04606688437	5.5299628420167	0
19.024943414211	7.7639203254384	0
20.773257966454	6.7926344630811	0
20.423595056005	6.9868916355526	0
20.525220951291	6.7579930414269	0
18.325617593314	8.1524346703813	0
22.171909608248	6.0156057731953	0
18.358644257932	8.0059700638753	0
18.500449048538	8.0553060841456	0
13.113700601203	10.919827650947	0
18.179077557622	7.889273685206	0
[...]
CELL_DATA 5825
SCALARS Coverage double 1
LOOKUP_TABLE default
2.2659664653813 2.2926337739807 2.8603593672251 2.3176030648606 2.300318952497 2.8525719882087 2.1213665096356 2.2950335176837 1.8405348159602 1.8786823907669 2.763530616476 2.797733439336 2.2821834670459 1.8715967179084 2.8383713384831 2.304571695866 2.2418527879042 2.8006667265198 2.3898416416201 2.4157777947508 2.210523000393 1.8869469187601 2.8065293808048 2.889757113449 2.3350017539245 2.2038030098982 2.014692569982 2.0263811897823 2.921818920769 2.4366844443661 2.1129964508133 2.3616369982298 2.0361364223951 2.086329981258 2.3258866370646 2.8592873699468 2.0189477906863 2.1037173778084 2.4206192596795 2.7326862591361 2.894866336192 1.6164408958701 2.8900439198089 2.3354396693334 2.0077225404338 0.79060503495802 2.9352478335819 1.9254682825974 2.2666023196254 1.4917021349867 2.3498138359402 0.77325777607003 2.1897247630999 1.7585825774941 1.6863034786397 1.7816153466177 2.1218277809573 2.1736416925603 2.7168592516124 1.7761317499714 1.8920761306966 1.93987268798 2.0882537590711 2.6875694059676 2.0620390819079 2.7562059404115 2.1234451810189 2.6996052522304 2.15035512453 1.9873973346577 2.8759488899363 2.0636413065653 2.770201860041 2.4492472290047 2.4753523257903 1.5990153373938 2.2171429187244 2.2012198341027 2.1355359624928 2.1630477162045 2.221078276779 2.0798282930628 2.7877970250667 2.7467670127107 1.9847324908594 2.9102196637446 2.1905147497829 2.0408260870468 2.5219476039379 2.2485889174531 2.2666412181112 2.202671706067 2.16228474883 2.017071288526 2.1481755012065 2.3528036484893 2.327453963325 0.76695948807039 2.0435462478727 2.8372533000838 2.238865028687 2.8694738692266 1.9963419481839 2.725099375176 2.7109074597931 2.8688357687796 2.1360592197953 2.7777059893569 2.3325922986908 1.5063344476151 2.792644081349 2.2461688646359 2.8218317284958 2.3909954555592 2.8285534035162 2.8352227246525 1.9756569133718 2.3094055753934 1.9305791333438 2.0805697134895 2.1626745737992 2.6702366643516 2.176296948847 2.6736755691739 2.1941245398212 2.7234953838906 2.162768748647 2.2483932665554 2.7324033453925 2.2251777374716 1.8052831388594 2.1530888683101 2.6733366398484 2.2495686628091 2.0280693554191 1.8126384525777 2.3634801043883 1.5571648096747 2.6964026733031 2.048908568616 2.8093610260678 2.1820326006046 2.7617657537734 2.8333112553867 2.2624121390915 2.420101109072 2.8841150774877 2.3441508267857 2.2690480500837 1.7011915520824 2.3138219699894 2.8803676574446 2.9081706513609 2.0440565172599 2.8588951572156 2.0656214399801 2.8970693050117 2.4471999863589 2.2353231184676 1.9140488149785 2.3840855390297 2.1157659905827 2.9340947825359 2.2897761346148 2.8829339926927 2.9125460252048 2.7842724930184 2.2698214287951 2.427168641465 2.8304252685815 2.8347686965645 2.2945921310844 1.762965632526 2.878118758577 2.8460170010035 2.2808679686966 1.9699266785672 1.6234937990851 2.362572596426 2.8673048097115 2.0822572091156 1.9368831615079 2.3217014193834 2.4313796851556 1.3837698014115 2.1558055970418 2.4043105822797 2.1980616256781 2.8436209783808 2.3044459606236 2.2354230308348 2.8930456888188 2.9164309202447 2.3820970585118 2.1958567238938 2.3885912437301 2.8094635353502 2.2275828256737 1.9922204113 2.271298543669 2.2486655087405 2.0034599150223 2.2644814878527 2.3740777327878 2.2287945540997 2.3950028126678 2.4261768873283 1.7768137847411 2.2261586217773 2.2621083471991 2.2672539876715 2.2815587153672 2.1169375249026 1.7371121651507 2.1922841913348 2.3163149771319 2.3713059993801 2.0060225178863 2.4081495064398 2.4316101881949 2.4685360695038 2.4220739601349 2.4534257345185 2.2267686087363 2.3487441403214 1.9735710741119 2.3675893918418 1.9806932567616 2.1300795431989 2.3075328727169 1.8559653779372 1.7753800978354 2.1872305832955 1.9713793941897 1.9576119125847 2.2352456396463 1.8863106857775 2.0165853768382 1.5574467979314 2.0817479756764 1.4995517392377 2.0231510838448 1.9114034936292 2.3086161913659 2.1783473883307 1.7611885157582 1.938051524017 2.1957247749436 1.947315013668 2.4052858159955 1.8639601142313 1.9749717544404 2.206569533877 2.1639129594201 2.3153156031808 1.9692007041966 2.0310073817439 2.0628382068078 2.2940765299131 2.2146265089659 2.2179808954068 1.9394178569412 2.1630377139052 2.1849385725532 2.3669982480966 2.3262735287643 1.8531880012969 2.3869956737172 2.1534148871055 1.8685195727401 1.9150191932948 2.3057301324631 1.5211034557971 2.0368117666548 2.1722639871579 1.4776009847364 2.2376860859684 1.4640670903541 1.8392009325461 2.1667270089781 1.5885702796293 1.991879517265 2.4208493842246 1.8425971899017 1.9226541141365 2.1539459108624 2.0737350216872 2.2903738230278 1.960956378523 2.1589007475161 2.3358432050765 2.2329691636723 2.2615893512014 2.2583814628644 2.4435330692958 2.4082179698191 2.0872608692701 2.1754045256456 2.2926674878249 2.2598481793091 2.4471303669077 2.4141792255471 2.2839533075545 2.2699829474903 2.467259860613 2.4331310554942 1.7600674301236 2.3504675455622 2.0290895913278 2.3842159005752 1.7968268795805 1.7560567686733 2.055587822665 2.1701319147928 2.2548144627553 1.8657602894655 2.1820726701809 2.0766953643644 2.1146763797567 1.9054614934428 2.293472969922 1.9074266048168 2.2412963947744 1.9770317227068 2.3441216268208 1.985425509764 1.9620629614784 1.7580071516006 2.216050212852 1.8314200813168 2.2397375570754 2.2263245532635 2.3238177261476 2.1008942266561 2.1677998703965 2.0979362906429 1.8450916451473 2.0541609978932 2.4272574808528 2.0709796931853 2.4428657217897 2.1096212262538 2.416189568458 1.9473971350184 1.8199435834596 1.7959361869512 2.0363192029568 1.8306873231977 2.113654656124 1.9638499641311 1.9104692746912 2.1338112253642 2.1054597578944 1.964250088488 2.1932076089043 2.2131363857181 2.200289230147 2.0279371913549 2.4097577981225 1.8709784080567 2.1933459311764 2.249342724676 1.89825434378 1.8154930099903 2.0897706096336 1.9778081090289 1.9862521342149 1.5926959023336 1.9838271383097 2.2805552491098 2.1352696024186 2.1995725360851 2.1020390847294 1.9966050376462 1.8123012597717 2.3114631996236 2.3101884617576 0.6330876023785 2.2069032357104 0.99763908125319 2.3412171728392 2.2582965853749 2.064526049204 1.8714126133535 2.2564911456407 1.9742685036488 2.0713480947592 1.7929444900466 2.1308008066874 2.0090846244245 2.0022736378196 2.2370838262139 2.2414936026378 1.8997803108439 2.2637609485635 1.8789247772032 2.0017296108107 2.1234279013658 2.1222809863637 1.9515805254125 2.2859034055129 2.2306958070128 2.2188147646368 2.1790923075926 2.2512636627152 1.9219759422829 2.3379267624105 2.1982836357019 2.0332684406222 1.280306868159 2.0782645107198 1.7769176628377 1.7233764521845 2.1299046381398 2.0845250413647 1.8149045939116 2.0966832299948 2.0639401272841 2.0083308057232 1.7178786363922 2.107361304215 1.9811158175959 1.7501380366196 1.4666772242344 1.7737310933614 1.785477694731 1.7727892950497 1.9471316470658 2.3309566756423 2.2101546022689 2.1150789298995 1.9563607250809 2.3571286494805 2.1755832447346 2.087875139875 1.830188290189 1.767467366955 2.2212446465216 2.0902571820426 2.0162820193343 1.9711576686817 1.7876867966943 2.3557830264222 2.1988267268038 2.1209614490659 1.8759666288638 2.2530637592472 2.118449536438 2.060676236287 1.1972901013806 1.2139549054687 1.5057721638638 1.2645115685584 2.2038309584038 2.0787907180914 1.9194541140604 2.1816590090222 2.0387461984026 2.1467769140278 1.9742405126679 2.0116048024565 1.9439885746439 2.1704802829423 2.0970389695158 1.9273241167114 2.2157714056462 1.9819389081898 2.1792990982708 2.2810927463137 2.1694426587927 2.0041847139626 2.2463185613256 2.0862720510787 2.2002648849058 2.0664813476587 1.9750079181731 2.0218682659614 2.2800943799308 2.2029777310866 2.0365042844549 2.228849976631 2.0887666631158 2.1863572017245 2.2957554026395 2.1837970158761 2.0144210300503 2.2579676314554 2.0842787586864 2.199380555644 2.2319864333169 2.0099410393376 2.1841053520972 1.9700387136066 1.8488037663139 1.6215059624433 2.0709764002486 2.0941314366134 2.0145040674719 2.0391076209265 2.0155474479533 1.850862636107 2.0369587498571 1.9444465615643 1.7139146581769 2.0765839641709 2.047815581737 1.8378339331732 1.9081490826335 1.9433962904607 1.8213289383608 1.8792485423193 1.8931015584854 1.7103690460712 1.9578657382715 1.9372313281245 1.7308601142513 2.2246772977459 2.1137217645553 2.1786054658331 2.1178716678555 1.991138977503 2.0718595556517 2.1660700550101 2.1587147020819 1.9570708083372 2.1903486373101 2.1712426913702 1.96793578347 2.2173487145439 2.1596029009783 1.9400362959626 2.1576048320533 2.19699778485 2.1021318298791 2.1394329469198 2.1477373031132 1.9821045240541 1.8107010110953 1.9200583382276 1.9864721414521 1.8724951809222 1.7144573057635 1.5426068326874 1.8428368799062 1.6248007219348 1.5045611111185 0.73640486853808 1.9588602470692 1.895901187215 1.705008552771 1.3386238018804 1.5915796381601 1.6986736502722 1.8113760552377 1.9289930003615 1.6215797861827 1.7199122713645 2.0786068080791 1.5454350667294 1.9838996726334 1.30017379012 1.1264131811944 1.7643641431441 1.6668345842413 0.53278977881901 1.7897938573861 1.7222100610858 1.8134360411222 1.6599008812212 1.7317305112844 1.6398657446234 1.6043018917314 1.6448574123824 1.6457667875283 1.0868026889728 1.7666278720426 1.8764209829894 1.3604665391866 1.801662750413 1.8206132266482 1.8130807550889 1.6086963965908 1.8131431378685 1.9008279278704 1.8023354932945 1.5416449880388 1.7962650231124 2.03115859305 1.7945251919649 1.8229559351578 2.0167885358654 1.9348222139352 1.6903282922515 1.4910349484615 1.7132648744178 1.504600007053 1.4333947813993 1.6208840068907 1.808567161374 1.437470027763 1.5955147917508 1.4259359387214 1.5544536786744 1.4231675625545 1.2851701719141 1.0030931010475 1.2484105300983 1.3887587001488 1.1937265783172 1.5850967171003 1.552896434218 1.7709638289139 1.4190230379402 1.7294948715637 1.7069782553854 1.5409115956338 1.7336195017124 0.53607498821853 1.0894113807153 1.3794851742684 1.1078844630382 1.1788218315921 1.562066884289 1.5206680120527 1.1988859206244 0.51426701855082 0.95131402487431 0.43713011597414 0.57042036061062 1.7389224055215 1.7909145446175 1.6493777233215 1.5701019355417 1.6522080499759 1.6193309230467 1.2996698242731 1.0691808692202 1.4647697436569 1.8582314305206 1.2243329509757 1.9121301716187 1.3447758339094 1.2558974625578 1.8003075369758 1.5694746893191 1.4040704322356 1.5288182771931 1.3334175378869 1.5636062554033 1.7280421578059 1.4702141256096 1.4162666275868 1.2861954932127 1.7868470392828 1.5535957443877 1.474425142841 0.94740896167842 1.8091057885397 1.6147092839106 1.6231903949617 1.4128519108221 1.7948053101926 1.5690052457485 1.2737596161381 1.3645284165771 1.397852882043 1.5800320741413 1.2708443623488 1.2051113324968 1.5162130977889 1.0831698607962 0.88797156929586 1.0170635946918 1.7355342815375 1.4861471467623 1.7395593002273 1.550807145013 1.7765580233996 1.3926081432958 1.7341193353926 1.2807161599676 1.5063662078466 1.2897148211692 1.1749536821168 1.5387265563603 1.016157278127 0.43502884549564 0.93268636146483 1.0113121638328 1.3547909636731 0.98502730064874 0.57120569923836 1.2338940113616 1.2203899900834 0.1766720680705 1.5271804465884 1.2025069432445 1.2995081932022 1.1654475063363 1.5088260169234 1.3560152322829 1.5922653392544 1.4253742014833 1.2514381238098 1.1535864650402 1.5572691330157 1.3163175573682 1.6289383373017 1.3426668221023 1.3623358822747 1.4273049753437 1.6321110926143 1.3590220883976 0.86273416577358 1.3507315860632 1.3878740877546 1.4317052135976 1.0391555798443 1.375705853289 0.94908978010322 0.9983754335156 1.1053414074987 0.63516873255602 1.3619748593525 1.1685806743767 0.94482201804093 0.86897867083688 1.493376766551 1.4364284633651 1.3134228210176 1.2749540501067 1.5111020857785 1.155580110979 1.5717257308319 1.3004636361175 1.4131289670869 1.2406035236123 1.6125016506698 1.2805950982475 1.6419106588685 1.3436214425388 1.3504825916302 1.4545276482203 1.6499736709952 1.3310449094822 1.335185971746 1.4454911585068 1.2551432998859 1.0730804043997 1.3584304755597 1.3533082268445 1.3694888761211 1.2804837586999 1.2981929290939 1.6189899372701 1.5720642495675 1.2893407746406 1.2975290355805 1.412612685425 1.8599321695984 1.5669880918974 1.2177379848855 1.2867936918218 2.0336392415849 1.6279652735586 1.3632839244139 1.2930617501078 2.0462475582704 1.6136722371708 1.3262143223719 1.272725422174 0.93675278874892 0.91000661423056 0.9469259001024 1.2925629185424 0.66444718015208 1.223171329386 0.89094846066022 1.2690989795494 0.85734397766057 1.9303150170496 1.5862143506794 1.1906735567919 1.2066588263969 1.8332514560757 1.5484826309202 2.0402619715441 1.8249948423149 2.0280451790667 1.8416992240658 0.73251789008749 1.1815286200645 1.2961875078775 1.1401279752984 1.0603591199643 1.1506899153142 1.2528581992784 1.5003273260525 1.1687905469068 1.2601793209171 0.87685215036958 1.0704886596122 1.9681038526285 1.73866695842 1.5358254807866 1.206596824498 1.1005025743831 1.1953834059642 0.99466557425394 0.24940408884327 0.72868509281722 0.60974874536238 0.84929665131197 0.5756038645371 1.7366049664348 1.6697878606236 1.3254391982344 1.222254575633 1.3812764132523 1.1553665038696 1.1889976317081 1.2741669102763 1.1281522583432 1.1382491205779 1.1077332925182 1.2355271148284 1.3295758250578 1.0741657277301 1.1464702008338 1.1516136953057 1.1421503715151 1.076983761122 1.1159131533166 1.2177381214474 0.83041053995039 1.395951615759 1.0562029164541 0.97146636364427 0.93825560099129 1.1578417996533 1.1214406717099 1.2120588648806 1.5126789205248 1.4150455521133 1.1968698786343 1.2051541612544 1.2143663952884 1.3841823347249 1.2452985990944 0.88205995594237 1.070227590567 1.0570440187402 1.1850934254529 1.0581711350391 1.2743612004757 1.1599817754213 0.98997954560727 1.0643414394346 0.97347062449415 1.0331632155773 1.1615268546887 1.2357908958613 0.94787906462278 1.3484045928098 1.278764373614 1.3024690005422 1.1307323072353 1.0782958762268 1.1283983755782 1.1786152623531 1.1243237718588 1.0039677836674 0.92116180136699 0.99024679087098 1.3027231809199 1.3973474865471 1.1218839491134 0.99132546911545 0.8819545720828 0.93839058255031 1.0150966994437 0.90912718743692 1.0820661942246 0.9287351193639 0.96136216114474 0.85528096991391 1.0934220467915 1.2693855209647 1.1071036668629 1.2334990134945 1.2347511418241 1.6946205921096 0.94955385552269 0.81445103591326 0.50688410848672 0.66151723332652 0.86721565364112 0.87422691190531 0.70819619226216 0.74158700067122 0.87533702294958 0.95344209347897 0.78814903418447 0.84809956160221 0.88637188665776 0.96517674751317 0.865916122965 1.0081154689759 0.98442250057775 1.0713683405951 0.71706330428341 0.70711145678655 0.97571994386711 1.0051868206652 0.84315810712525 0.95425890968782 0.85059150215173 0.83064385535372 1.0482746900721 0.80145816136671 1.0871187048613 1.1202352597265 0.9050356323369 1.1219402321098 0.72469228762646 0.76218675103656 0.85546472779569 0.8802615107214 1.07341392252 1.287387169582 1.3187961436053 0.79824865979401 0.76916088488436 0.80493810483972 0.96696700008929 0.90249364299404 0.96858672410984 0.80458012439054 0.81583778189603 0.81595668092219 0.87396490374572 0.87228263264616 0.73043629611387 1.3331836187863 0.74589460184378 0.75328840202149 0.76890740327143 0.71818110089373 0.70844687102192 0.67972430155351 0.74918462299583 0.80363326333735 0.75646914906725 0.7281811129523 0.7658973115833 0.75938876223995 0.6297839184277 0.73091377634963 0.74922979235128 0.75311061730711 1.3975484624857 0.67744319188844 0.7124328563616 1.0585467144351 0.72491259026501 0.64713342052433 0.70909046727512 0.61175177907573 0.75269829402772 0.76181858537573 0.71706511659319 0.66807668994617 0.70834712150577 1.4402267718885 0.66686636530683 0.70572899838958 0.66047609220328 1.2454620745348 0.78647744806886 0.7020534014709 0.79728333148116 0.77905738842182 0.69453581577543 0.64996132466724 1.1250580719363 0.61543846906346 0.65144779293178 0.61428652446607 0.6605958836698 0.71424705123694 0.68414930092369 0.63556914837554 0.67140878886338 0.61594505128599 0.63515032933841 0.79615619658211 0.67152720709139 0.66890738875219 0.85077804578484 0.63067368534467 0.71535323851337 1.0075918090904 0.78790410244318 0.83925852414467 0.61460516956016 0.60355138645873 0.56321815893819 0.69682410610807 0.63456488380279 0.61274654877476 0.65854570922976 0.57719841850328 0.5895178879286 0.60141102290198 0.62890783738539 0.99588862380323 1.1040023147813 0.58314183253153 1.2056638403821 0.58236126397351 0.4921880695668 0.56695705849887 0.9980574636543 0.54200828924678 0.77333350812582 1.1021382295417 1.4670593639676 0.68403895439225 0.57638330167685 0.60020676468241 0.64186299395566 1.5549228543086 0.49866438142744 1.5172921721523 1.1245786401594 1.6915977771353 1.3917933619731 0.88657023892883 0.98760858216085 1.5408827108457 1.3835778069913 1.4155514345713 1.2272093678863 0.86071224788708 1.2083810160306 1.0712348251544 1.2646666891917 0.54852320225546 1.2460534795628 1.0869351588788 1.1517306224045 0.84964407285612 0.97780359271099 0.76149087629371 0.84284438094749 0.9698058341107 1.1379222998848 0.9512406358034 0.42171502433033 1.4911603986233 1.2669071404366 1.1215894534313 0.8326524687705 1.3255423907832 0.18613236847303 1.0290820193684 1.4043808121359 1.2686859680293 0.9975962277173 1.1728029724486 0.79961122319785 1.372046618172 0.62731789602726 0.99263034601962 0.75259672798831 0.6517498877223 1.4777987542297 0.96152958040371 1.6819312805546 1.553617014779 1.4788445981543 1.1264464405597 1.3532362763592 1.3649623663342 1.1093234768441 1.2299743883203 1.1777899295343 0.89824071882449 1.6192467354821 0.79306882887768 1.4222560608738 1.2495869166939 1.3217649318646 1.3445080072479 1.2952740562753 1.2662768679 1.1022168571605 1.163679311258 1.3384589893742 1.2679067442095 1.2331236381489 1.2612808704409 1.1650883399921 1.2649320149606 0.93328842565746 1.1789150462799 1.2452157896624 1.1414421929436 1.2943982186506 1.1517070854982 1.0711351246637 1.175457418079 0.92803930040811 1.1425287000595 1.0764144342574 1.0701632428146 1.2964849176001 1.2516858296444 1.3165007094867 1.3357002028462 1.1329057665629 1.2322053762169 1.3295536666906 1.8030191436121 0.93477109448797 1.33756088743 1.0249067577741 1.0260929760854 1.2332954327755 1.3121136993764 1.5413298196921 1.411939052906 1.1364996063558 1.1697165242046 1.0147002197686 1.1460747558184 0.99814415775687 1.3327157482686 1.296553626411 1.4055187254747 0.9806016068907 1.3230511967214 0.98516393911039 0.93600957514869 1.0488410172227 0.87028818082201 0.91190937405393 0.96543721573472 0.99952285980098 1.1289768893876 0.69976274579455 0.87114990871247 0.95913882934834 0.90423144916273 1.083612222373 1.0372902243552 1.0409711262252 1.0056156223825 1.2737279453023 0.64173059895381 0.86479596002291 0.98865303474838 0.97830785156714 1.0591418546832 0.86270033460051 0.93197974939182 0.50481308784297 0.63280785721447 0.98966629473152 0.71268246848231 0.39045837885611 0.78133593625789 1.3614419834847 0.55082426198541 1.2154984021508 0.4955675292693 0.5334598736989 0.71548901948953 0.61613870831631 1.0689085770179 0.50911902821024 0.56439358115035 0.52329198126522 0.52899184317044 0.65181564582114 0.7598003983267 0.76449376138921 0.81963235395416 0.66823829528891 1.0912565304298 1.3116289376237 1.1871767605889 1.1705379880721 0.86485437346463 0.61946063248236 1.0104779973315 0.98530515539954 0.93398259750538 0.83492039215892 0.2911600223292 1.290175279787 1.2344947748209 1.1746987496712 0.38401512181136 0.8801784704996 0.6086243307652 0.53706823999107 0.80015211607345 0.8049078734792 1.0498277098983 1.0071597737593 0.54822142388809 1.4036185579317 1.2572265043457 1.3108027507063 1.1131673679023 0.9999554731431 1.4581069313924 1.1996927392572 1.2433983573087 1.2071501678462 1.1044686953975 1.1947235623443 1.0606505250963 1.3067677735499 1.0798558793432 0.91580728634364 1.1196021860466 0.98851186286927 1.2260462577743 1.0226048808104 1.2769954574456 0.8491764079393 0.92758542725655 0.98818132224825 0.70486363782374 0.9173571115461 0.98872102690687 0.89409634559282 1.194275