# vtk DataFile Version 3.0
d-2__ created by libgimli-v1.5.0-1-g5991b6ac
ASCII
DATASET UNSTRUCTURED_GRID
POINTS 3056 double
16.047984885364	9.2005108665658	0
16.227640130622	9.31797770521	0
16.052808675398	9.4151062914457	0
9.6856707273838	12.779965388042	0
9.5840448320983	13.008863982168	0
9.459889155087	12.888340064957	0
9.4017034496321	12.989518397958	0
9.4966291044861	13.057428275285	0
9.409213376874	13.105992568403	0
6.9615730037337	14.465792775704	0
6.8666473488796	14.397882898376	0
6.9945996683525	14.319328169198	0
10.283370652996	12.620349637225	0
9.9337077425469	12.814606809696	0
10.035333637832	12.585708215571	0
10.370786380608	12.571785344107	0
10.246630703596	12.451261426896	0
3.2	14.888006064741	0
3.3935321886838	14.815842352641	0
3.3	15	0
10.363276453366	12.455311173661	0
3.05	14.894536113346	0
2.95	14.834347813918	0
3.0997032337695	14.698789777549	0
22.54986393823	5.4610590293129	0
22.601478319067	5.6563101371606	0
22.484832569298	5.6522603903955	0
7.8357302798552	13.980149844525	0
7.7483145522431	14.028714137643	0
7.7115746028439	13.859625927314	0
8.7098875559768	13.494506913346	0
8.6224718283646	13.543071206464	0
8.5857318789655	13.373982996136	0
21.698091020789	6.0893390284563	0
21.734830970188	6.2584272387846	0
21.639905315334	6.1905173614571	0
4.9002967662305	14.698789777549	0
5.05	14.834347813918	0
4.95	14.894536113346	0
8.5275461735105	13.475161329137	0
8.5350561007525	13.591635499582	0
23.708017310135	5.0679061559452	0
23.57570494199	5.2584272387846	0
23.492391392804	5.1534065041647	0
7.9373561751407	13.751251250399	0
5	15	0
4.9	15	0
25.208739718026	4.888006064741	0
25.308739718026	5	0
25.108739718026	5	0
6.7500015991102	14.393833151611	0
6.8150329680421	14.202631790528	0
7.6608988246309	14.077278430761	0
7.653388897389	13.960804260315	0
12.90584248136	11.163420843689	0
12.869102531961	10.99433263336	0
12.993258208972	11.114856550571	0
14.304494123155	10.386392153803	0
14.40612001844	10.157493559677	0
14.654157033603	10.192134981332	0
11.237433729487	11.969668242483	0
11.18581934865	11.774417134635	0
11.36538604896	11.891113513304	0
11.120787979718	11.965618495718	0
11.885664010266	11.385614544848	0
12.082360983452	11.431411271421	0
12.024175277997	11.532589604422	0
13.080673936584	11.066292257453	0
12.98574828173	10.998382380126	0
13.867415485094	10.629213619392	0
13.77248983024	10.561303742065	0
13.830675535695	10.460125409064	0
10.909490913954	12.100065284392	0
10.844762499738	11.765076855645	0
12.934133900893	10.803131272278	0
3.6	14.810067208388	0
3.7	15	0
3.5	15	0
12.657805466197	11.128779422035	0
12.556179570912	11.35767801616	0
11.244943656729	12.086142412928	0
11.157527929117	12.134706706046	0
1.3	15	0
1.2	14.888006064741	0
1.4	14.810067208388	0
1.9	15	0
1.5	15	0
1.7	14.849260526121	0
12.119100932851	11.60049948175	0
2	15	0
2.05	14.894536113346	0
2.1	15	0
12.031685205239	11.649063774867	0
1.0997032337695	14.698789777549	0
1.05	14.894536113346	0
0.95	14.834347813918	0
11.332359384341	12.03757811981	0
5.7	14.849260526121	0
5.5	15	0
5.503868896942	14.598288840263	0
4.064468339761	12.492321883392	0
3.9817116885018	12.918420923089	0
3.7670358212135	12.67328000924	0
13.779999757482	10.67777791251	0
25.602637769837	4.524993056905	0
25.708739718026	4.8492605261212	0
25.458739718026	4.8343478139176	0
14.734062833973	10.027096517768	0
14.682448453136	9.8318454099206	0
14.862015153446	9.9485417885899	0
-0.24940646753892	14.834347813918	0
0.05	14.834347813918	0
0	15	0
15.804771660235	9.3804648697915	0
15.703145764949	9.6093634639172	0
15.578990087938	9.4888395467067	0
29.767533861964	4.3398980943704	0
29.508442951795	4.548348532907	0
29.495546029131	4.1485808085627	0
0.1	15	0
0.3	14.849260526121	0
27.458739718026	4.8945361133462	0
27.358739718026	4.8343478139176	0
27.508442951795	4.6987897775495	0
0.5	15	0
16.678928936356	8.8948219386129	0
16.4287009421	8.6628888321103	0
17.028591846805	8.7005647661415	0
1.1	15	0
1.95	14.834347813918	0
20.105956534257	6.4151422964054	0
20.247470662652	6.669867727517	0
19.925330046586	6.7203171073957	0
21.501394047603	6.0435423018831	0
24.087916739041	4.9470663132613	0
23.750549209437	4.5440302871062	0
2.3	15	0
2.2	14.888006064741	0
2.4	14.810067208388	0
26.308739718026	5	0
26.358739718026	4.8343478139176	0
26.408739718026	5	0
25.008739718026	4.8100672083876	0
24.908739718026	5	0
3	15	0
2.9	15	0
1	15	0
21.472583787351	6.4041201181382	0
21.297752332127	6.5012487043739	0
21.301387084399	6.2885606170178	0
19.199774869435	7.6667917392027	0
19.112359141823	7.7153560323205	0
19.104849214581	7.5988818618751	0
6.1791038580454	14.704649136022	0
6.0874157276122	14.951435706882	0
5.95	14.834347813918	0
6.8741572761215	14.514357068821	0
6.7867415485094	14.562921361939	0
16.402471585846	9.2208491189743	0
16.260666795241	9.171513098704	0
16.394961658604	9.1043749485289	0
6	15	0
28.922845333402	4.5823118347521	0
28.708739718026	4.8492605261212	0
28.602637769837	4.524993056905	0
4	15	0
3.95	14.894536113346	0
4.05	14.834347813918	0
28.108739718026	5	0
28.208739718026	4.888006064741	0
28.308739718026	5	0
7.136404458958	14.368664189468	0
7.1315806689246	14.154068764588	0
7.3112359141823	14.271535603232	0
23.945942620228	5.1435706882137	0
23.403806383266	4.93902940218	0
3.9	15	0
4.1	15	0
27.608739718026	4.888006064741	0
27.80227190671	4.8158423526409	0
27.708739718026	5	0
17.36404458958	8.6866418946778	0
17.356534662338	8.5701677242324	0
17.451460317192	8.6380776015599	0
5.3	14.849260526121	0
5.1	15	0
14.617417084204	10.023046771003	0
5.9	15	0
6.5387045333462	14.528279940285	0
14.998996154018	9.7832823839802	0
15.178651399276	9.9007492226244	0
15.003819944052	9.9978778088601	0
4.3	14.849260526121	0
27.508739718026	5	0
16.453147364059	9.0031966155281	0
16.256450390874	8.9573998889549	0
22.871235429146	5.6270914282524	0
22.72943063854	5.5777554079822	0
22.866411639112	5.4124960033725	0
21.122920876903	6.5983772906097	0
20.948089421678	6.6955058768454	0
20.981116086297	6.5490412703394	0
1.8827233936571	13.413209492963	0
1.635985724768	13.057931042977	0
2.0585343714792	13.116469985366	0
13.63397856251	10.414328682491	0
24.321832839145	4.8833962425865	0
24.408739718026	5	0
24.316180298466	5.0287141376427	0
24.708739718026	4.8492605261212	0
24.508739718026	5	0
24.458739718026	4.8343478139176	0
23.483145522431	5.2871413764274	0
9.2631921819019	12.842543338384	0
25.358739718026	4.8945361133462	0
25.408739718026	5	0
25.508739718026	5	0
12.206516660463	11.551935188632	0
3.1	15	0
12.308142555748	11.323036594506	0
24.679068235604	4.239790780138	0
25.006267059794	4.3425605622482	0
24.599747236054	4.5734506034563	0
22.521572518697	5.8213486007239	0
22.608988246309	5.772784307606	0
11.502367049532	11.725854108695	0
11.68202229479	11.843320947339	0
11.507190839566	11.940449533575	0
10.491228772839	12.376756444483	0
10.633033563444	12.426092464753	0
10.45820210822	12.523221050989	0
22.696403973921	5.7242200144881	0
23.395729794819	5.3357056695452	0
23.358989845419	5.1666174592169	0
2.8061019481889	14.524993056905	0
2.7	14.849260526121	0
26.108739718026	4.8492605261212	0
25.908739718026	5	0
0.9	15	0
26.458739718026	4.8945361133462	0
27.308739718026	5	0
27.408739718026	5	0
29.358739718026	4.8343478139176	0
29.408739718026	5	0
29.308739718026	5	0
26.508739718026	5	0
27.108739718026	4.8492605261212	0
27.214841666215	4.524993056905	0
28.408739718026	5	0
28.358739718026	4.8945361133462	0
28.458739718026	4.8343478139176	0
28.508739718026	5	0
21.923872593085	5.9809643515411	0
21.8222466978	6.2098629456668	0
26.708739718026	5	0
26.608739718026	4.888006064741	0
26.808739718026	4.8100672083876	0
28.908739718026	5	0
29.108739718026	4.8492605261212	0
14.056457107991	10.351750732149	0
13.954831212706	10.580649326274	0
29.658146185565	4.8343478139176	0
19.54461398985	7.2579391418513	0
19.724269235108	7.3754059804955	0
19.549437779884	7.4725345667312	0
21.647415242576	6.3069915319025	0
13.250681601775	10.754568246337	0
13.430336847033	10.872035084982	0
13.255505391809	10.969163671217	0
9.2674085862685	13.056656548133	0
16.489887313458	9.1722848258564	0
16.577303041071	9.1237205327386	0
17.626291772416	8.5409490153242	0
17.484486981811	8.491612995054	0
17.621467982383	8.3263535904443	0
21.284504402929	5.7190625713937	0
21.673644598829	5.7490312450385	0
17.276628861968	8.7352061877956	0
16.926965951519	8.9294633602671	0
17.239888912569	8.5661179774673	0
18.11404618869	8.0804750462887	0
17.902749122926	8.2149218349628	0
17.83802070871	7.8799334062158	0
18.238201865702	8.2009989634992	0
18.150786138089	8.249563256617	0
8.5612854570062	13.033675212718	0
9.0547266763919	13.085654315995	0
8.8115134512622	13.265608319221	0
14.741572761215	10.143570688214	0
9.2343819216497	13.203121154639	0
9.0595504664254	13.300249740875	0
9.4354427331278	12.548032281539	0
9.6630878033521	12.327490919146	0
15.615730037337	9.657927757035	0
15.520804382483	9.5900178797075	0
9.9706052236163	12.250719786823	0
14.828988488828	10.095006395096	0
15.528314309725	9.7064920501529	0
19.986516417945	7.2297131011419	0
19.949776468545	7.0606248908135	0
20.073932145557	7.181148808024	0
20.175558040842	6.9522502138984	0
25.309036484257	4.6987897775495	0
20.860673694066	6.7440701699633	0
20.853163766824	6.6275959995179	0
22.273535503534	5.7867071790697	0
22.208807089318	5.4517187503226	0
3.1317176073544	14.309812537406	0
20.736518017055	6.6235462527528	0
19.891590763091	7.1618032238144	0
19.899100690332	7.2782773942597	0
28.008739718026	4.8100672083876	0
27.908739718026	5	0
18.23069193846	8.0845247930538	0
28.309036484257	4.6987897775495	0
27.895939159663	4.4709363375124	0
28.265207298324	4.2898533340251	0
18.988203464812	7.59483211511	0
23.147692779655	5.301064247891	0
23.04606688437	5.5299628420167	0
19.024943414211	7.7639203254384	0
20.773257966454	6.7926344630811	0
20.423595056005	6.9868916355526	0
20.525220951291	6.7579930414269	0
18.325617593314	8.1524346703813	0
22.171909608248	6.0156057731953	0
18.358644257932	8.0059700638753	0
18.500449048538	8.0553060841456	0
13.113700601203	10.919827650947	0
18.179077557622	7.889273685206	0
[...]
CELL_DATA 5825
SCALARS Coverage double 1
LOOKUP_TABLE default
2.2566871132779 2.3044186286742 2.8913877809576 2.3508437607384 2.2912124463408 2.8682629971004 2.1174626634415 2.3409137856062 1.8231202097782 1.8928571269358 2.808637493514 2.8439687028135 2.2979304733131 1.8695018938646 2.8731839789956 2.3162013933259 2.2578179067301 2.8353146255036 2.406534775073 2.42356108555 2.2060258642315 1.8964942233455 2.8418940329216 2.9045285916518 2.3345589367829 2.2105719203334 1.9906794317017 1.9986777026645 2.9375719970213 2.4512922679407 2.0887114827074 2.3683039341738 2.0048939717592 2.0818946447741 2.3151426127667 2.8771240770458 2.023162531301 2.1193556956872 2.4324549572769 2.7687391382996 2.9185796518019 1.6033869557975 2.9136260170577 2.3721756641361 2.0155678889854 0.83725979180412 2.9485369868944 1.9357990256126 2.2581943458614 0.97415420225758 2.348579972369 0.77857140135018 1.9099456132644 1.6081115833823 1.6635736866815 1.5985041103915 2.1054069821034 2.2013358727037 2.7589805828173 1.737597540544 1.9055439919019 1.9353593048805 2.0832349366418 2.685680771228 2.058619413338 2.7964184885875 2.133771203824 2.749205461093 2.1586146954252 1.8613944739841 2.9039253510434 2.0662021430006 2.8037111655032 2.4574594536185 2.50864728976 1.5878159427255 2.2823703437942 2.2500341670999 2.1361409982408 2.1603948321538 2.2243244214842 2.0974379044912 2.8298048178609 2.7851458631731 1.9696474190858 2.9300788979135 2.1926992440963 2.0135474074677 2.5555199687352 2.262623140788 2.2511903008964 2.2110044376601 2.1543287833436 1.9968952033201 2.1586802662536 2.3800268261069 2.3453533543265 0.78880812123386 2.0115878933648 2.847957336451 2.246833085727 2.883156307397 1.9787081053835 2.7245370879865 2.705802183279 2.8941364821784 2.0926452046671 2.814093520237 2.3330711058921 1.5072020590262 2.8163267566354 2.2315444851136 2.8639359523393 2.4012853596006 2.8477707350138 2.8586449917118 1.9870740512461 2.3588285080311 1.9284393344194 2.0718356557065 2.2133503464512 2.7223290801631 2.1771097238319 2.6654341530003 2.2378726009892 2.7217299381981 2.1422422041727 2.2463487332785 2.7308316257324 2.2293648693987 1.8061424883064 2.2404247582023 2.6977081330662 2.262727092342 2.0170191472717 1.83725558441 2.3540446418606 1.541798707919 2.7092614221492 2.0696334643388 2.833998628507 2.1905978895933 2.7948549997775 2.8628117400763 2.2524513757948 2.4233774534084 2.9005733224625 2.3416368117158 2.2615268111657 1.6901672820361 2.3168356228692 2.9013917435881 2.9208337366712 2.0539855747365 2.8875942894897 2.0465850811509 2.9156640482519 2.4517363865135 2.2096075660029 1.8636503027224 2.4255007280434 2.0879787955279 2.9531679769075 2.3189559305774 2.9008340896993 2.9318572781386 2.832034548486 2.2829136420346 2.4189740411825 2.8417497068179 2.8606810148226 2.3042030974915 1.7665253261239 2.9044027840801 2.8741528159658 2.3140645576255 1.9594597756841 1.6007956186759 2.3963653329191 2.8975485442264 2.1178555358058 1.9299407527329 2.3629898523323 2.4409097907848 1.4089104196186 2.1578133885775 2.412773500182 2.2033217928684 2.8743330765834 2.3193090613295 2.2510777291484 2.9209582084791 2.9351054921715 2.4272440395536 2.2105355225185 2.4000218699455 2.8405178158966 2.2210626688979 1.988078222111 2.2860570859926 2.2472154355859 1.984756268818 2.2594177642857 2.3703817935722 2.2025800225195 2.3994027497318 2.4352789654258 1.765564297725 2.2384238506063 2.2743775858879 2.2885567731205 2.2964590205011 2.1066045050165 1.730135176478 2.1861627017447 2.337332141542 2.3894441245978 1.991805945027 2.4128203664276 2.4317106839263 2.4708663595057 2.4246851350583 2.4568371697034 2.2339129172544 2.3696663133996 1.9744626826091 2.3848887165239 1.9644649109089 2.1119761880916 2.3045958058909 1.8924809566949 1.7487867036926 2.2005855404881 1.9271271811518 1.954988313388 2.231282159197 1.8869179890241 2.0067291266632 1.5434685905044 2.0753602221436 1.5126960760731 2.0030382170633 1.8976122662476 2.325833993149 2.1872204539006 1.7403406511642 1.9055722911925 2.1706162153435 1.9421420069427 2.4098388569755 1.8193586979584 1.9525697283193 2.1846507527567 2.1786674243049 2.335099628261 1.9537037123834 2.0417699443513 2.0510008383982 2.3087406254925 2.196620333541 2.2029951893953 1.9477904063137 2.17448257966 2.1651187615627 2.3771237416118 2.3300450323284 1.8422697540697 2.3827804946316 2.1686120845727 1.8617453641992 1.9240908347752 2.3305651716096 1.5162944656589 2.0336161647037 2.1697453788604 1.4597505719097 2.2436450714694 1.4753549007594 1.8358463440033 2.178081688325 1.5625872908772 1.9936709714359 2.424716858864 1.8185349583837 1.9334644799057 2.16083177249 2.0756073416657 2.3074441040145 1.9393639732923 2.1487715043127 2.3330715428431 2.2431563842793 2.2507479490608 2.2409984487005 2.4487398492805 2.4098686791451 2.0754462387486 2.1817331094953 2.2778961417658 2.2488768122444 2.4566889122086 2.4188979253392 2.2748885933401 2.2586161235447 2.4690640358371 2.4326204250787 1.737025663857 2.3712768099621 2.0252913281314 2.4063647845573 1.7562315404099 1.7727623667782 2.0402217518382 2.1578907344445 2.2637459627377 1.8444525055634 2.2049347031694 2.0838923868624 2.1182571229698 1.8784971121449 2.3100175014867 1.8836327070393 2.2555882415826 1.9670782451866 2.361301168462 1.974286883827 1.9605737696494 1.7583370294803 2.2107912153624 1.8355039976182 2.2383050447454 2.2140794329055 2.3254081228049 2.1044074395001 2.1811393028236 2.0969578036094 1.8453982066891 2.0468841902983 2.4398063496454 2.0633349427543 2.4476968368095 2.0809020141036 2.43028466628 1.9112273841513 1.7813312144085 1.7613633078738 1.994249884199 1.7879557082988 2.092362204402 1.9296802989633 1.8680391054068 2.1146714729171 2.0994534950161 1.9243629611039 2.1799718460319 2.2155009899821 2.2123325790462 2.0108089836644 2.426070027089 1.8785816338024 2.191956115683 2.2511297117791 1.9054156925273 1.8070504391964 2.0883170544253 1.9631282316857 1.9698052063431 1.5867304395372 1.9711788959822 2.2865283638431 2.1502185411966 2.2088992336892 2.0941716935441 2.0401012372416 1.8227130656631 2.3159462631972 2.3095989677442 0.73630686655593 2.2214650638511 0.99348665326781 2.333161206195 2.270507004253 2.0578713968826 1.8556426963255 2.2272246401258 1.9716477618437 2.0626101444692 1.7690489204989 2.128492133955 2.0079100010119 1.9937070524137 2.2257321797241 2.237948271612 1.8804859216298 2.2362737350119 1.8560953677961 1.9992722548985 2.1451509918683 2.1268209941775 1.9210295538328 2.2782201164737 2.2308806470492 2.2177186184799 2.1931453006454 2.2404619939635 1.8960583970532 2.3279071677199 2.1842256725182 2.0400165206213 1.0481798767575 2.0946996433966 1.6841944802321 1.6619145844002 2.1411969202646 2.0767745386572 1.7972071280349 2.1007713881226 2.0468505506808 2.0032223703561 1.7222790908544 2.1029099234615 1.9753371322579 1.7464475000495 1.4238902921383 1.797769473474 1.8216413157444 1.7550034464944 1.9142931969044 2.3370730726614 2.2070849220318 2.0883710062245 1.9206561893795 2.3495725328063 2.1593641033326 2.0783665487886 1.8296248066501 1.6516365839296 2.2315670883928 2.0983320439727 2.0216309818267 1.9316613226163 1.8312479593275 2.3588120954726 2.1776154757007 2.0979541954531 1.8700651812693 2.2683789607936 2.114766412689 2.054812705137 1.1588716190909 1.2363796604251 1.5160714572914 1.2963350972833 2.1854115596253 2.07741497054 1.900392138858 2.1801657125954 2.0107870063427 2.1157563330526 1.9594347300949 2.0218123789333 1.9387121700214 2.1829390072214 2.0921514226257 1.9118940635029 2.2062590188462 1.9910660821213 2.1392169388101 2.2658562189333 2.1514318601147 1.9699220223948 2.2396624191609 2.0599698855443 2.1740616521837 2.082382838072 1.971556355586 2.0103968239441 2.2728449655098 2.1773880649663 1.9988982165158 2.2401259123103 2.0679317099794 2.1758223895126 2.2840228456471 2.1643043495401 1.9820103797592 2.252622263401 2.0648998291866 2.1802174717675 2.2196876114471 2.0206695494209 2.1457375357726 1.9674114147533 1.809511356925 1.5826378386396 2.0885087761731 2.0845766534372 2.0031019597912 2.0268709209662 1.9952508268408 1.8153423981461 2.0322821317508 1.9184393428286 1.6881530107562 2.0723576866445 2.0534341478992 1.8354009311494 1.9507082562043 1.9286412272939 1.836877940554 1.8674864272365 1.8801944398019 1.6969165050991 1.9523899774181 1.9343945380964 1.726664058406 2.2350243403959 2.0921151067555 2.1666365139762 2.1289378087364 1.9775909396031 2.0718614395013 2.1700087310168 2.1428689559056 1.9256133579679 2.1947566010606 2.1489205590623 1.9289607861854 2.1983822082373 2.1472610232744 1.9143105410466 2.1774121471327 2.2025698471964 2.1033250406438 2.1421064634511 2.1379879989261 1.955466485893 1.8254124127979 1.8785559866573 1.9394770262539 1.822310190501 1.6924233014382 1.5283869037732 1.8203622520577 1.604525188015 1.4924026820063 0.74019513308399 1.9257481844153 1.8861583540356 1.6650001268129 1.3968524787926 1.5959449187324 1.6667021659539 1.7804421808998 1.9059006309681 1.5933289061573 1.6925927191148 2.0558122760952 1.5306737270641 1.9358508869283 1.3745836238277 1.1105758845471 1.7327065728135 1.6133246791558 0.62678538181919 1.7484991776813 1.7091326884122 1.7978212944548 1.6245682633873 1.7275051466732 1.6386601551612 1.6043151866484 1.6345967115315 1.6621381304092 1.1220853723002 1.7213442666648 1.8389073224255 1.3975681313246 1.7740144975542 1.777973084962 1.7764968029428 1.5860701124861 1.7781323114105 1.8843559595898 1.805859662658 1.5214780202705 1.789929074626 1.9976707946798 1.7612847413883 1.7866498530874 1.9920827985474 1.9188147782606 1.6671096765496 1.477237341465 1.6994806619408 1.4997487595785 1.4356561966663 1.5906026348771 1.7757167530573 1.4643167718041 1.5694301544377 1.4545958175328 1.5469552838057 1.4262089180196 1.3529080896288 1.0270404184969 1.2088540385663 1.398042327483 1.2158124533929 1.5564037725202 1.5301238616281 1.7349301229874 1.4145944543009 1.7036833054397 1.690308639724 1.5162563773101 1.6857008030922 0.63277804169355 1.0377322067458 1.3491647975682 1.1418356147092 1.2000727626871 1.5761509233302 1.5087870826126 1.2306185383347 0.60390721116822 0.91129249474656 0.46634040144676 0.58773214813899 1.718695167081 1.7325257551144 1.6122636061158 1.5477370955906 1.6322397587058 1.5898190529443 1.3078581071633 1.03921898147 1.467939827209 1.8220652759993 1.2360705685868 1.8549088917824 1.2570136993883 1.2971026827001 1.7706519277504 1.5521163870016 1.4290308777994 1.509695145229 1.3791596885001 1.5483776459534 1.6869286308098 1.4583285614376 1.432941530051 1.3645689583055 1.7448882014564 1.5441995589731 1.4843612078253 0.98534346003099 1.7690642999804 1.5977797655296 1.5958938054806 1.4570394767469 1.7597462214235 1.5566035932097 1.3071957439659 1.4180444937305 1.4073374363785 1.5496207085929 1.2620436120002 1.2790388459135 1.5085228675188 1.0805949746505 0.90183069179014 0.99813793323971 1.7096000938249 1.4605307031975 1.7251334494607 1.529360912053 1.7367961037804 1.4066344873683 1.6870676154564 1.3230043550904 1.4897107963037 1.3119724987093 1.2016687119876 1.5180785837656 0.95184161108475 0.55613414714566 0.93034624628422 1.0366122851327 1.3715099804774 0.94353443129616 0.67612000923393 1.2980984512217 1.1748413432232 0.11226429797548 1.5038109424475 1.2157369718833 1.3676492195147 1.251871208178 1.5069438872018 1.3742864830926 1.5550652722502 1.4691031418777 1.3492656000167 1.2056634202834 1.5487413631488 1.3496730699005 1.5985356724938 1.3825607935048 1.4151360720834 1.4650136680334 1.5953333184181 1.4154544330268 0.93878492359402 1.4109011102231 1.396867761358 1.4122118674875 1.0912582992174 1.415310906971 0.68456944037952 1.0455302240999 1.0907759465542 0.57803144146335 1.3705309783734 1.1645500784564 0.96278946693176 0.88603889822386 1.4753997729827 1.4243653876506 1.34889388354 1.3157246959216 1.4948291351753 1.1807841834672 1.5428742028639 1.3213914154553 1.441008720586 1.261516091098 1.600156883746 1.3607657476619 1.6205443218602 1.416194275885 1.3854957815416 1.4812537177571 1.6215385952177 1.4001948729743 1.4023886593742 1.4689431808481 1.2913182807612 1.0520000195891 1.375116737076 1.3686728164348 1.39319595934 1.3134625666506 1.3330373954302 1.5947306106763 1.5436974345365 1.3345026460473 1.3258196725978 1.42400838795 1.8100896387459 1.5511262500463 1.307992321011 1.3510209166568 1.9977772187575 1.6107943437577 1.407245381222 1.3255745830243 1.9993137140129 1.5983343169375 1.3845058447288 1.2750511923537 0.91159611012513 0.90299407086993 0.91662102688066 1.2916473689843 0.67434344355748 1.2484222595327 0.93797518046661 1.3171300005291 0.86736105818793 1.9058027419699 1.5670796870695 1.2218983747803 1.2379200227983 1.8118477216316 1.5284808183113 1.9960822811565 1.7893658384192 1.9866046659529 1.7959232556527 0.75170885854491 1.1488623304768 1.326176466768 1.1544598334587 1.0642274016235 1.1978871153577 1.2905937236737 1.4831982455288 1.2144522229513 1.3041220630867 0.91127339549637 1.0963695523886 1.9389233581139 1.7017392380683 1.5351279657654 1.2887922789216 1.1617255384649 1.2991119973099 1.0114819851283 0.32485762041257 0.73720026920575 0.62998221014047 0.86758876907366 0.58448169851218 1.6992546800477 1.6481512854171 1.3526897500299 1.2946564985555 1.4022175104464 1.2506963465837 1.2800887378312 1.3459265363339 1.2149542426008 1.2234081752087 1.1802368567963 1.2717852085261 1.3658998485078 1.13814209954 1.2432004227071 1.2161188610348 1.2281551704108 1.1430791379186 1.1444609752449 1.2946600785826 0.91189765525072 1.4430295988809 1.1087703939084 1.0123137133886 0.98024089248836 1.1618850176808 1.1455109718658 1.2626463618869 1.5011515579415 1.4370014385298 1.2426859783041 1.2390111499116 1.2630992951911 1.4364520010916 1.2656884924837 0.9471511008831 1.0844441875215 1.0944267093525 1.2525222828976 1.1277125531693 1.3173760316063 1.2452048178224 1.0344197610075 1.1213451972697 1.0228400200643 1.037329889465 1.1719525248087 1.2683394728495 0.98645746466933 1.3874575636947 1.3526647578695 1.3804691444694 1.1425507453722 1.0693838729632 1.1278992399914 1.1781721107143 1.1331979427655 1.0192829045382 0.95937616559385 1.003457643384 1.3718808638221 1.4359654404699 1.1363736659497 1.0266907370658 0.92681185214029 0.98488167797927 1.0388047922495 0.96855279819341 1.1666700023966 0.97851785410132 1.003942399242 0.89998275974023 1.0882642883208 1.3277832120604 1.079072516945 1.2576567921485 1.2397316097773 1.6933440982315 0.9900635028125 0.92065069442761 0.61851381472214 0.79916836313113 0.91462767680872 0.9237633682336 0.83836144214266 0.86566026774754 0.94137702436824 0.99830105559606 0.87455203622603 0.92236271968716 0.94629856521479 1.0035782518419 0.93413608405104 1.0460895053696 1.0303503174563 1.1067010137547 0.83713909517687 0.83914812432147 0.99471075359535 1.0041561251893 0.91086703750617 0.9712149324781 0.91086501790841 0.9157673822834 1.120123340951 0.88065289278163 1.1471113354315 1.1942502556362 0.96479621241379 1.1096671071669 0.85516459836954 0.89179504152709 0.92869111997816 0.92173806955339 1.0862111963647 1.3695982269715 1.3757745802518 0.91488484938007 0.87908151432451 0.90133009091336 1.0037206339843 0.93543742379266 0.97493397947346 0.89049922755557 0.91422563248273 0.8986579947952 0.93862153727858 0.91748981318751 0.85037110969926 1.3886561750056 0.87238332764077 0.8944367400451 0.87396611219783 0.85342964904244 0.83286906561635 0.79859770014048 0.87347632815672 0.91635210637809 0.87488942399256 0.84249748183943 0.88139023561571 0.87717087699877 0.7652302749993 0.84045283917744 0.86539999848508 0.85964700489916 1.3477131075219 0.8083939152916 0.84638059891031 1.0819217804109 0.85436538077327 0.77353637566729 0.83680995349882 0.72453574994174 0.87013828535256 0.89462876135978 0.83413327461795 0.7888077950255 0.83123620390226 1.4591786486478 0.80100318221276 0.82718989781355 0.77799537738888 1.242358131674 0.87340375629383 0.83312706822512 0.88465801523732 0.86860627226404 0.81896998513596 0.79332817861061 1.1938861328567 0.76700591974416 0.79443040738344 0.75686714776132 0.80589019245283 0.78210443815391 0.81457767403933 0.75758741982074 0.80887247499059 0.74646139935888 0.75336926317417 0.891467713258 0.80896327874139 0.79684544212756 0.89647916009971 0.77496832460288 0.83042772830849 0.92834664293955 0.8468412822589 0.88200622548391 0.67797827216224 0.74678821037462 0.66849105278786 0.75215693287394 0.7842219515729 0.75499487975296 0.78901090091196 0.66347533710025 0.73791937020503 0.72087303796382 0.75640043293603 1.002544120875 1.0709270982012 0.64864369093731 1.1110741753019 0.72579929023348 0.58865983083938 0.64433300161127 0.99569591409951 0.65691049507769 0.81920361074425 1.042259132461 1.5002954606395 0.78298554752448 0.71496023673126 0.72323818890247 0.77032473618164 1.4330981836188 0.62427691111622 1.5159253703532 1.1563351080002 1.7030579152659 1.3705143392988 0.89625014424222 1.0459823019485 1.5393358623251 1.420466195186 1.4228568898472 1.2663764774666 0.87601472294163 1.2244125291786 1.1054282304858 1.2714725708195 0.54875928039995 1.2566595635573 1.1207120703117 1.170699457189 0.86502850102301 0.9946376210286 0.77225804595657 0.85252573760414 0.99003221638769 1.1637508127807 0.96760379347866 0.47301202062982 1.4922130768646 1.2725543261386 1.1645078666667 0.84124323441126 1.3116441857647 0.24798915451075 1.0488609094862 1.4006951828543 1.293146548375 1.0212407167535 1.2216098493699 0.76772675346278 1.3548235524155 0.64144731815882 1.0164914187827 0.73346090270631 0.63518549687258 1.4740586392839 0.97938065340778 1.6719384012372 1.5571131652159 1.4734702917489 1.1582034609066 1.3695160350686 1.37387504936 1.1356930596762 1.2592625027826 1.2133230441149 0.91025358080733 1.5654608597629 0.90160370486555 1.4652916692375 1.2607850937677 1.3653260974543 1.3903694091924 1.3215510850273 1.2854927806815 1.108905544504 1.1649276133654 1.3700782931185 1.2869972678057 1.2437178199109 1.2729465667365 1.1600317618487 1.2899869024499 0.98362154263598 1.1836292994648 1.2536399001581 1.1260709617181 1.31073966959 1.1648615665914 1.0619009248774 1.1645485349207 0.9710687942854 1.1463218571636 1.0850275401728 1.0771752234374 1.3293502787232 1.265284091423 1.3762288975251 1.3914182102229 1.1451446325912 1.2380108957016 1.3707337510458 1.7742646106505 0.98208945684767 1.3643657349758 1.02626331167 1.046159095148 1.2374329494269 1.3322017890845 1.5432309925554 1.4613470834703 1.1315839033734 1.1631618175714 1.035824962862 1.1381536468745 1.0161223852862 1.3885994769664 1.3307693525417 1.450540559356 0.99686348462528 1.3591383269718 1.026271887404 0.9758057635716 1.0718494011281 0.95808350061497 0.95932414958085 0.99233141698 1.0615831768558 1.1955725841588 0.75985162716074 0.92211293002333 1.0236482984089 0.96201061840245 1.1583513231405 1.1036586457057 1.1225015360759 1.0688570347669 1.2828746150822 0.72433868831207 0.9246147013884 1.0555016883815 1.033984216014 1.1372204253377 0.91472980099743 0.98128003944716 0.62216874498233 0.77214286788013 1.0124481659781 0.8208089849272 0.30035674673191 0.8391694528118 1.329818006687 0.69986788737254 1.1956391452158 0.58957391818545 0.62774408844912 0.7921699008379 0.71615753648279 1.0603478535035 0.6054506285699 0.6906073851878 0.63006862390565 0.63255696472285 0.72909117613443 0.7533924885379 0.77734151594448 0.787885856487 0.68855435121865 1.1026871801107 1.3122554988909 1.2151582768299 1.1455858911607 0.83416551923698 0.63882835620947 0.98930725687418 1.0005992216095 0.94200914007899 0.83626836637182 0.30071496962378 1.2881168979424 1.2530485751068 1.1847182278591 0.42423679354216 0.8490231599037 0.59943246810212 0.55814458503079 0.79255054607398 0.80840894132557 1.0400557281261 1.0242692012395 0.51837683702712 1.4276817617628 1.2886923994456 1.3514009268111 1.1235284261495 1.0225297101985 1.4633036897035 1.2125872636729 1.2704544448285 1.2228026091926 1.1080121633396 1.2115455010775 1.0655024295092 1.3485338369027 1.0979116476786 0.96211764977319 1.1315936344261 1.0056628778585 1.2437220909102 1.0447738242104 1.3080804399489 0.91145306488367 0.96842277221143 1.0157981438548 0.80863490058898 0.975352601563 1.0029058671815 0.94001411595781 1.207263694841 1.0241722876117 0.878