# vtk DataFile Version 3.0
d-2__ created by libgimli-v1.5.0-1-g5991b6ac
ASCII
DATASET UNSTRUCTURED_GRID
POINTS 3056 double
16.047984885364	9.2005108665658	0
16.227640130622	9.31797770521	0
16.052808675398	9.4151062914457	0
9.6856707273838	12.779965388042	0
9.5840448320983	13.008863982168	0
9.459889155087	12.888340064957	0
9.4017034496321	12.989518397958	0
9.4966291044861	13.057428275285	0
9.409213376874	13.105992568403	0
6.9615730037337	14.465792775704	0
6.8666473488796	14.397882898376	0
6.9945996683525	14.319328169198	0
10.283370652996	12.620349637225	0
9.9337077425469	12.814606809696	0
10.035333637832	12.585708215571	0
10.370786380608	12.571785344107	0
10.246630703596	12.451261426896	0
3.2	14.888006064741	0
3.3935321886838	14.815842352641	0
3.3	15	0
10.363276453366	12.455311173661	0
3.05	14.894536113346	0
2.95	14.834347813918	0
3.0997032337695	14.698789777549	0
22.54986393823	5.4610590293129	0
22.601478319067	5.6563101371606	0
22.484832569298	5.6522603903955	0
7.8357302798552	13.980149844525	0
7.7483145522431	14.028714137643	0
7.7115746028439	13.859625927314	0
8.7098875559768	13.494506913346	0
8.6224718283646	13.543071206464	0
8.5857318789655	13.373982996136	0
21.698091020789	6.0893390284563	0
21.734830970188	6.2584272387846	0
21.639905315334	6.1905173614571	0
4.9002967662305	14.698789777549	0
5.05	14.834347813918	0
4.95	14.894536113346	0
8.5275461735105	13.475161329137	0
8.5350561007525	13.591635499582	0
23.708017310135	5.0679061559452	0
23.57570494199	5.2584272387846	0
23.492391392804	5.1534065041647	0
7.9373561751407	13.751251250399	0
5	15	0
4.9	15	0
25.208739718026	4.888006064741	0
25.308739718026	5	0
25.108739718026	5	0
6.7500015991102	14.393833151611	0
6.8150329680421	14.202631790528	0
7.6608988246309	14.077278430761	0
7.653388897389	13.960804260315	0
12.90584248136	11.163420843689	0
12.869102531961	10.99433263336	0
12.993258208972	11.114856550571	0
14.304494123155	10.386392153803	0
14.40612001844	10.157493559677	0
14.654157033603	10.192134981332	0
11.237433729487	11.969668242483	0
11.18581934865	11.774417134635	0
11.36538604896	11.891113513304	0
11.120787979718	11.965618495718	0
11.885664010266	11.385614544848	0
12.082360983452	11.431411271421	0
12.024175277997	11.532589604422	0
13.080673936584	11.066292257453	0
12.98574828173	10.998382380126	0
13.867415485094	10.629213619392	0
13.77248983024	10.561303742065	0
13.830675535695	10.460125409064	0
10.909490913954	12.100065284392	0
10.844762499738	11.765076855645	0
12.934133900893	10.803131272278	0
3.6	14.810067208388	0
3.7	15	0
3.5	15	0
12.657805466197	11.128779422035	0
12.556179570912	11.35767801616	0
11.244943656729	12.086142412928	0
11.157527929117	12.134706706046	0
1.3	15	0
1.2	14.888006064741	0
1.4	14.810067208388	0
1.9	15	0
1.5	15	0
1.7	14.849260526121	0
12.119100932851	11.60049948175	0
2	15	0
2.05	14.894536113346	0
2.1	15	0
12.031685205239	11.649063774867	0
1.0997032337695	14.698789777549	0
1.05	14.894536113346	0
0.95	14.834347813918	0
11.332359384341	12.03757811981	0
5.7	14.849260526121	0
5.5	15	0
5.503868896942	14.598288840263	0
4.064468339761	12.492321883392	0
3.9817116885018	12.918420923089	0
3.7670358212135	12.67328000924	0
13.779999757482	10.67777791251	0
25.602637769837	4.524993056905	0
25.708739718026	4.8492605261212	0
25.458739718026	4.8343478139176	0
14.734062833973	10.027096517768	0
14.682448453136	9.8318454099206	0
14.862015153446	9.9485417885899	0
-0.24940646753892	14.834347813918	0
0.05	14.834347813918	0
0	15	0
15.804771660235	9.3804648697915	0
15.703145764949	9.6093634639172	0
15.578990087938	9.4888395467067	0
29.767533861964	4.3398980943704	0
29.508442951795	4.548348532907	0
29.495546029131	4.1485808085627	0
0.1	15	0
0.3	14.849260526121	0
27.458739718026	4.8945361133462	0
27.358739718026	4.8343478139176	0
27.508442951795	4.6987897775495	0
0.5	15	0
16.678928936356	8.8948219386129	0
16.4287009421	8.6628888321103	0
17.028591846805	8.7005647661415	0
1.1	15	0
1.95	14.834347813918	0
20.105956534257	6.4151422964054	0
20.247470662652	6.669867727517	0
19.925330046586	6.7203171073957	0
21.501394047603	6.0435423018831	0
24.087916739041	4.9470663132613	0
23.750549209437	4.5440302871062	0
2.3	15	0
2.2	14.888006064741	0
2.4	14.810067208388	0
26.308739718026	5	0
26.358739718026	4.8343478139176	0
26.408739718026	5	0
25.008739718026	4.8100672083876	0
24.908739718026	5	0
3	15	0
2.9	15	0
1	15	0
21.472583787351	6.4041201181382	0
21.297752332127	6.5012487043739	0
21.301387084399	6.2885606170178	0
19.199774869435	7.6667917392027	0
19.112359141823	7.7153560323205	0
19.104849214581	7.5988818618751	0
6.1791038580454	14.704649136022	0
6.0874157276122	14.951435706882	0
5.95	14.834347813918	0
6.8741572761215	14.514357068821	0
6.7867415485094	14.562921361939	0
16.402471585846	9.2208491189743	0
16.260666795241	9.171513098704	0
16.394961658604	9.1043749485289	0
6	15	0
28.922845333402	4.5823118347521	0
28.708739718026	4.8492605261212	0
28.602637769837	4.524993056905	0
4	15	0
3.95	14.894536113346	0
4.05	14.834347813918	0
28.108739718026	5	0
28.208739718026	4.888006064741	0
28.308739718026	5	0
7.136404458958	14.368664189468	0
7.1315806689246	14.154068764588	0
7.3112359141823	14.271535603232	0
23.945942620228	5.1435706882137	0
23.403806383266	4.93902940218	0
3.9	15	0
4.1	15	0
27.608739718026	4.888006064741	0
27.80227190671	4.8158423526409	0
27.708739718026	5	0
17.36404458958	8.6866418946778	0
17.356534662338	8.5701677242324	0
17.451460317192	8.6380776015599	0
5.3	14.849260526121	0
5.1	15	0
14.617417084204	10.023046771003	0
5.9	15	0
6.5387045333462	14.528279940285	0
14.998996154018	9.7832823839802	0
15.178651399276	9.9007492226244	0
15.003819944052	9.9978778088601	0
4.3	14.849260526121	0
27.508739718026	5	0
16.453147364059	9.0031966155281	0
16.256450390874	8.9573998889549	0
22.871235429146	5.6270914282524	0
22.72943063854	5.5777554079822	0
22.866411639112	5.4124960033725	0
21.122920876903	6.5983772906097	0
20.948089421678	6.6955058768454	0
20.981116086297	6.5490412703394	0
1.8827233936571	13.413209492963	0
1.635985724768	13.057931042977	0
2.0585343714792	13.116469985366	0
13.63397856251	10.414328682491	0
24.321832839145	4.8833962425865	0
24.408739718026	5	0
24.316180298466	5.0287141376427	0
24.708739718026	4.8492605261212	0
24.508739718026	5	0
24.458739718026	4.8343478139176	0
23.483145522431	5.2871413764274	0
9.2631921819019	12.842543338384	0
25.358739718026	4.8945361133462	0
25.408739718026	5	0
25.508739718026	5	0
12.206516660463	11.551935188632	0
3.1	15	0
12.308142555748	11.323036594506	0
24.679068235604	4.239790780138	0
25.006267059794	4.3425605622482	0
24.599747236054	4.5734506034563	0
22.521572518697	5.8213486007239	0
22.608988246309	5.772784307606	0
11.502367049532	11.725854108695	0
11.68202229479	11.843320947339	0
11.507190839566	11.940449533575	0
10.491228772839	12.376756444483	0
10.633033563444	12.426092464753	0
10.45820210822	12.523221050989	0
22.696403973921	5.7242200144881	0
23.395729794819	5.3357056695452	0
23.358989845419	5.1666174592169	0
2.8061019481889	14.524993056905	0
2.7	14.849260526121	0
26.108739718026	4.8492605261212	0
25.908739718026	5	0
0.9	15	0
26.458739718026	4.8945361133462	0
27.308739718026	5	0
27.408739718026	5	0
29.358739718026	4.8343478139176	0
29.408739718026	5	0
29.308739718026	5	0
26.508739718026	5	0
27.108739718026	4.8492605261212	0
27.214841666215	4.524993056905	0
28.408739718026	5	0
28.358739718026	4.8945361133462	0
28.458739718026	4.8343478139176	0
28.508739718026	5	0
21.923872593085	5.9809643515411	0
21.8222466978	6.2098629456668	0
26.708739718026	5	0
26.608739718026	4.888006064741	0
26.808739718026	4.8100672083876	0
28.908739718026	5	0
29.108739718026	4.8492605261212	0
14.056457107991	10.351750732149	0
13.954831212706	10.580649326274	0
29.658146185565	4.8343478139176	0
19.54461398985	7.2579391418513	0
19.724269235108	7.3754059804955	0
19.549437779884	7.4725345667312	0
21.647415242576	6.3069915319025	0
13.250681601775	10.754568246337	0
13.430336847033	10.872035084982	0
13.255505391809	10.969163671217	0
9.2674085862685	13.056656548133	0
16.489887313458	9.1722848258564	0
16.577303041071	9.1237205327386	0
17.626291772416	8.5409490153242	0
17.484486981811	8.491612995054	0
17.621467982383	8.3263535904443	0
21.284504402929	5.7190625713937	0
21.673644598829	5.7490312450385	0
17.276628861968	8.7352061877956	0
16.926965951519	8.9294633602671	0
17.239888912569	8.5661179774673	0
18.11404618869	8.0804750462887	0
17.902749122926	8.2149218349628	0
17.83802070871	7.8799334062158	0
18.238201865702	8.2009989634992	0
18.150786138089	8.249563256617	0
8.5612854570062	13.033675212718	0
9.0547266763919	13.085654315995	0
8.8115134512622	13.265608319221	0
14.741572761215	10.143570688214	0
9.2343819216497	13.203121154639	0
9.0595504664254	13.300249740875	0
9.4354427331278	12.548032281539	0
9.6630878033521	12.327490919146	0
15.615730037337	9.657927757035	0
15.520804382483	9.5900178797075	0
9.9706052236163	12.250719786823	0
14.828988488828	10.095006395096	0
15.528314309725	9.7064920501529	0
19.986516417945	7.2297131011419	0
19.949776468545	7.0606248908135	0
20.073932145557	7.181148808024	0
20.175558040842	6.9522502138984	0
25.309036484257	4.6987897775495	0
20.860673694066	6.7440701699633	0
20.853163766824	6.6275959995179	0
22.273535503534	5.7867071790697	0
22.208807089318	5.4517187503226	0
3.1317176073544	14.309812537406	0
20.736518017055	6.6235462527528	0
19.891590763091	7.1618032238144	0
19.899100690332	7.2782773942597	0
28.008739718026	4.8100672083876	0
27.908739718026	5	0
18.23069193846	8.0845247930538	0
28.309036484257	4.6987897775495	0
27.895939159663	4.4709363375124	0
28.265207298324	4.2898533340251	0
18.988203464812	7.59483211511	0
23.147692779655	5.301064247891	0
23.04606688437	5.5299628420167	0
19.024943414211	7.7639203254384	0
20.773257966454	6.7926344630811	0
20.423595056005	6.9868916355526	0
20.525220951291	6.7579930414269	0
18.325617593314	8.1524346703813	0
22.171909608248	6.0156057731953	0
18.358644257932	8.0059700638753	0
18.500449048538	8.0553060841456	0
13.113700601203	10.919827650947	0
18.179077557622	7.889273685206	0
[...]
CELL_DATA 5825
SCALARS Coverage double 1
LOOKUP_TABLE default
2.2567159922873 2.3044748482819 2.8914799689716 2.3508927015727 2.2912329945145 2.8682819645849 2.1175238098458 2.3410985887836 1.8231462329114 1.8928295526485 2.8086575597359 2.8439577657822 2.2978352121162 1.8694766627355 2.8731502384203 2.316087725832 2.2578131964953 2.835319427714 2.4066036475711 2.4235719080096 2.2060487009786 1.8964763006537 2.8418969404267 2.9045067412267 2.3346243186011 2.2105564976272 1.9906839917111 1.9986675552205 2.937562147102 2.4514717765019 2.0887728293363 2.368213921205 2.0048864170701 2.0819524932602 2.3151345228472 2.8770819638441 2.0232037029567 2.1193687712227 2.432507938072 2.7688154564815 2.9186065800003 1.6034414023257 2.9135952472597 2.3720206360327 2.0155114616922 0.83723187208155 2.9485775361996 1.9357053796237 2.2582123141877 0.97443821870561 2.3486191751906 0.77857532608124 1.9098904858489 1.6080554773881 1.66355418199 1.5984289624172 2.1053570020952 2.201381729134 2.7589739224828 1.7375186875671 1.9054892167309 1.9353762110672 2.0833142354026 2.6856512941026 2.0586749422422 2.7964394371165 2.133657644486 2.749207624837 2.1585529339046 1.8612502107728 2.9038510034541 2.0660821866355 2.8036766752115 2.4574673420876 2.5085887441369 1.5878024221238 2.2821786586677 2.24993876133 2.136099189639 2.160410523976 2.2241905169925 2.0974652415003 2.8298434614171 2.7851449148398 1.969605853884 2.9301061978449 2.1926006487161 2.013560714096 2.5554472965779 2.2626082604673 2.2511554995927 2.2110063407022 2.1542937734583 1.9968831521054 2.1587548359401 2.3800555930163 2.3453404725952 0.78882290625432 2.0116153640203 2.8479043842724 2.24679934912 2.8830544769162 1.9787404241889 2.7245410623655 2.7058040496838 2.8941920507987 2.092729557327 2.8141574300312 2.3330967495578 1.5071927080526 2.8163496268764 2.2315557396524 2.8639674709828 2.4011913828181 2.8478276555735 2.858609810056 1.9870020749023 2.3587833207063 1.9284173244341 2.0718069799928 2.2135496561426 2.7222902731648 2.1770562773442 2.6654172410091 2.2376704808602 2.7217064554866 2.1422148319627 2.2463825386699 2.7308150761516 2.229300103675 1.8061608076955 2.2405039815374 2.6977214142631 2.2626377041165 2.016987024446 1.8372687966157 2.3541102091146 1.5419421634252 2.7092387366227 2.0696046749455 2.8339235096548 2.1905411310103 2.79477721739 2.8627536804913 2.2524379105387 2.4234875016714 2.9005004279076 2.3415929649831 2.2615600570808 1.6902324993264 2.3166806816112 2.9013317542128 2.9209324323564 2.053980379334 2.8876978806124 2.0466386958296 2.9156717338909 2.4517629342363 2.2096541257221 1.8636198725218 2.4255909191558 2.0879419419723 2.953176433722 2.3189863467707 2.9008616036715 2.9319052556873 2.8320690528 2.2829131884245 2.4186884065485 2.8417113122435 2.860772714232 2.3042920623918 1.7664729734525 2.904346268264 2.8741670106073 2.3141436367495 1.9593971666273 1.6007393088778 2.3965577845851 2.8975526168647 2.1178627575481 1.9299081654473 2.3632526153325 2.4411239838866 1.4089476005644 2.1578444710596 2.4127606242783 2.2033240827439 2.8742816123902 2.3193839466694 2.2511983947627 2.9210061382193 2.9351223555251 2.4269637596267 2.2105506675511 2.4000570695576 2.8405724672537 2.2210385036452 1.9881657704886 2.2860002121506 2.2472554028387 1.9847319874752 2.2593542692054 2.3703461469439 2.2025579899384 2.3994060241278 2.4352602519476 1.7656462538346 2.2384918464816 2.2744455327208 2.2886152332925 2.2964681403677 2.1066221942185 1.7301061391785 2.1861108959172 2.3372653178764 2.3894674882499 1.9917815653389 2.4128646675292 2.4316802140847 2.4708507759839 2.424679872468 2.456819470266 2.2337898170215 2.3696410416777 1.9744217485099 2.3847773367218 1.9645208523428 2.1120227382242 2.3045296412609 1.8924739724691 1.7487979489613 2.2006231081068 1.927176874129 1.9549600326329 2.2312896927829 1.8868232403534 2.0067277365879 1.5434397662225 2.0753561856085 1.512734438814 2.0030442228588 1.8975746599953 2.3259093480569 2.187222028664 1.7402914489427 1.9055650561437 2.1706303183688 1.9421888725357 2.4097893831834 1.8194363652609 1.9525523466529 2.1846915204096 2.1787480864644 2.3350525416164 1.953724668416 2.0417513388088 2.0509667820992 2.3088930434249 2.1966062815918 2.2030092967269 1.9477921716171 2.1744950565307 2.1651387788745 2.3771070366457 2.3300723973993 1.8422484266645 2.3828466935806 2.1686159992483 1.8617623686366 1.9241021158058 2.3306011211489 1.5162630990921 2.0336583807214 2.1697589391042 1.4597870011271 2.243609106137 1.4753600371622 1.8357903638636 2.1780539930382 1.5625903397334 1.9936010204232 2.4247631204401 1.8184047909269 1.9335181727028 2.1608108324793 2.0756856080872 2.3073704859716 1.939381825633 2.148779910058 2.3330439602646 2.2431845458099 2.2507195696795 2.2410479745985 2.4487838324144 2.4098877168091 2.0754878630781 2.1817461446017 2.2778642737036 2.2488696476552 2.4567165517893 2.4189274970149 2.2748454909133 2.2586345194566 2.4691198434793 2.4326422778623 1.7371564165656 2.3712028480443 2.0253175627017 2.4063887596863 1.7562168542332 1.7727820341588 2.0402359837408 2.1579157509438 2.2637413643717 1.8444310344478 2.2049590566637 2.0839355427758 2.1183464737863 1.8785039297517 2.3100871856845 1.8836224134385 2.2556557715163 1.967047545793 2.3613642275874 1.9742985755649 1.9605494592108 1.7583294826084 2.2107567886575 1.8355077794782 2.2382912901035 2.214146384455 2.3254330241298 2.1043887038176 2.181188216899 2.0970076232229 1.8453780483759 2.0468892231792 2.4398525304873 2.0633436917124 2.447712765554 2.0809093580073 2.4302227083716 1.9112620687088 1.781365281414 1.7614002118401 1.9942384539566 1.78794717283 2.0923968352272 1.9297666426842 1.8680649195002 2.1147050330064 2.0994659919905 1.9243882696248 2.1800224617661 2.215467529272 2.2123192202337 2.0108411688121 2.4259765555548 1.8785421587765 2.1918549064181 2.2510645134587 1.9054337895466 1.8071356995023 2.0881772457732 1.9631146712364 1.9696930755357 1.5867817019569 1.9711016618438 2.2865578045726 2.1501578274564 2.2088378511822 2.0941763639775 2.0401147045138 1.8226593950613 2.3158170593847 2.3096590300402 0.73631491303013 2.2213833965343 0.9935030580629 2.333287856584 2.2706335985745 2.0579268158678 1.8556800812609 2.2271905615737 1.9716441519219 2.0626921268335 1.769023844257 2.1285018122665 2.0079022500865 1.9936767397911 2.2257276720955 2.238007780715 1.8805309849625 2.2363345714994 1.8560427474772 1.9993152197882 2.1451443140374 2.1268853137392 1.921030816642 2.2782246809256 2.230922835348 2.2177205565587 2.1931906079462 2.2404002566296 1.8959880157438 2.3279153881761 2.1842390715892 2.0400312682568 1.0482277707498 2.094635821115 1.6841382748099 1.661882542894 2.1411159259815 2.0767031133331 1.7972390758791 2.1006403486158 2.0468161363275 2.0032721239697 1.7221700651543 2.1028931682203 1.9753599309597 1.746341528294 1.423849791424 1.7977837428232 1.8216450084067 1.7549847439968 1.9143097945342 2.3370321513399 2.2070014393709 2.0884194884657 1.9206478147925 2.3495238270877 2.1593809576228 2.0783645668856 1.8296342580623 1.6515268104688 2.231610899615 2.0983080028214 2.0215973290092 1.9316870264491 1.8311388129366 2.3588086329192 2.1776874157054 2.0979773107134 1.8700077538833 2.2684164618294 2.1148297078558 2.0547625469608 1.1588451228641 1.2363688753421 1.516069033274 1.2964106072644 2.1854516511641 2.077432202825 1.9003984040507 2.1802090799494 2.0107958099947 2.1157869883604 1.9594171064612 2.0217539573597 1.9387049372731 2.1828532874153 2.0921826032846 1.9119184189728 2.2062993576038 1.9911186429411 2.1392253373072 2.2659135831963 2.1514345595306 1.9699242212782 2.239677720802 2.0599574776946 2.1740854791744 2.0823765265373 1.9715879901014 2.0103541533946 2.2728200971281 2.1773905401858 1.9989617142208 2.2401613879538 2.0679918080952 2.1758715781603 2.2840597801986 2.1642967024132 1.9820190475513 2.2526615372489 2.0649129810537 2.1802399549242 2.2197430245985 2.0206721699649 2.1458343441217 1.9674616303443 1.8094759679718 1.5825624365488 2.0885305367799 2.0846368283436 2.0031113031429 2.0269260466414 1.9952974797712 1.8153675421697 2.032376249992 1.9184640067417 1.6881073163163 2.0723479627547 2.0534728916143 1.8352506626277 1.9507038842793 1.928595371712 1.8368341322025 1.8674609213325 1.8801750458996 1.6969325260857 1.9523722600527 1.9343802155116 1.7266573994742 2.2349949855406 2.0921254582282 2.1666129090079 2.1288671578212 1.977582340427 2.0717815041603 2.16996129154 2.1428912549233 1.9256435947748 2.1948776752969 2.1489567653476 1.9289490527432 2.1983482423389 2.1472339004755 1.9143833239721 2.1774568797023 2.2024532980497 2.103319661749 2.1420433521818 2.1379303888922 1.9555251018412 1.8254525027984 1.8785936967862 1.9395165673475 1.8223212491371 1.6924506231626 1.5283859436113 1.8203245696959 1.6044070333845 1.4923748615794 0.74016147800685 1.9258571192455 1.8862048428631 1.6650515503199 1.3968413166944 1.5959821232938 1.6666458592935 1.7805058090724 1.905933251031 1.5932976957276 1.692597688366 2.0558161881379 1.5306366589767 1.9358169580874 1.3745845510287 1.1105314956769 1.7327454134453 1.6132613837738 0.62682864856103 1.7484868411776 1.709164509335 1.7978184883975 1.6245762733741 1.7273528949576 1.6386797005503 1.6042133262818 1.6345549637109 1.6621603874941 1.1220653457 1.7214129281747 1.8388632556988 1.3975166657207 1.7740818182665 1.7779560558062 1.7765565962217 1.5860550584268 1.7781624525727 1.884343891242 1.8057138656208 1.5215122977911 1.7899396819897 1.9977182288409 1.7613008440036 1.7866546899283 1.9921522517888 1.9188577455352 1.6671724117353 1.4772707210768 1.6994520359532 1.4997137271444 1.4357038047488 1.5906424035699 1.7757159231941 1.464280847584 1.5694408308771 1.4545827974852 1.546948071856 1.4261641944281 1.3529487133364 1.0270015706981 1.2088825241849 1.3979984891615 1.2158568889098 1.556427823843 1.5300890759338 1.7348063141746 1.414612759919 1.7037279268825 1.690145836613 1.5163439454901 1.6857809413811 0.63282897662476 1.037705470974 1.3492147763625 1.1417990141512 1.2000738232437 1.5761304004466 1.508811035716 1.2306461886421 0.60391396140283 0.91132699371102 0.46637934411113 0.58777849709459 1.7187024864244 1.7324772294412 1.6122117521867 1.5477192187375 1.6321646450264 1.5897110407137 1.3078434562911 1.039277275064 1.4678750438716 1.822096849554 1.2360949351665 1.8549697533598 1.2569547667617 1.2970776189321 1.7707023175895 1.5521761594256 1.4290791926572 1.5097308791797 1.3791548948895 1.5483632340728 1.6869210783748 1.458274918986 1.4329919158077 1.3645957466309 1.7449231678672 1.5441780839634 1.4843270132597 0.9853169713664 1.7691264449642 1.5977774014039 1.5958478646363 1.4570165545209 1.7597888331543 1.5565993211181 1.3071752086375 1.4180368788079 1.4072776011656 1.5496528503027 1.2620354474399 1.2790372514352 1.5085573109716 1.0806296048556 0.9018056963444 0.99819148284825 1.7095845571505 1.4604863801887 1.7250901937767 1.5293123528412 1.7369322846992 1.4066913988164 1.6870312861518 1.3230752769818 1.4897795692473 1.3120019023072 1.2016729346404 1.51796642792 0.95182409888246 0.5561311154907 0.93038525206528 1.036623100941 1.3715260097047 0.94359026401444 0.67613327558202 1.2980894699117 1.1748594272324 0.11230549182116 1.5038059969017 1.2157928744831 1.3676538627832 1.2518901188942 1.5068962178815 1.3743507982604 1.555087311386 1.4691306604962 1.3492583212668 1.2056817965034 1.5487465855266 1.3497006184645 1.5985168362165 1.3825840954516 1.4151173083786 1.4650245690175 1.5953390660458 1.4154755375476 0.93876196476381 1.4108710377433 1.3968217783915 1.4121756067821 1.0912635663812 1.4152769195811 0.68461588159385 1.0455418727165 1.0908304942116 0.57801503517944 1.3705458397048 1.1645488715881 0.96276402074722 0.88601952442808 1.4754166486975 1.4243891246051 1.348885202467 1.3157839053657 1.4948887092762 1.1808303735206 1.5429299907921 1.321445124588 1.440991799059 1.2615329149008 1.600209528039 1.3608018280415 1.6205529411639 1.4161779855878 1.3854725953029 1.4812288217769 1.6215411406536 1.4001977005982 1.4023657151992 1.4689488961392 1.2913494289609 1.0520651928956 1.3751846654907 1.3687043451547 1.3931993066129 1.3135070895075 1.3330669483999 1.5947511193584 1.5436509086792 1.3344953684515 1.3258337304446 1.423972462822 1.8101142491386 1.55116200447 1.3080625039804 1.3509801714498 1.9978279116665 1.610749675034 1.4072852931083 1.3255516542557 1.9993390320883 1.5983238232795 1.3845115387837 1.2750829868409 0.91163076963269 0.90304600728181 0.91667613993453 1.2916467169669 0.6743320902543 1.2484338120315 0.93797620807248 1.31719220097 0.86733109394838 1.9057476023097 1.5670066880005 1.2218847172446 1.2379281952714 1.8119025841645 1.5285596639065 1.9961132341394 1.7893599757802 1.9866059889391 1.7959621511555 0.75169426052184 1.1488814715605 1.3261839192049 1.1545073074338 1.0642365832489 1.1978939612493 1.2905812573007 1.4831964021406 1.2144911088582 1.3040813966094 0.91127763763078 1.0963506134892 1.9388843955605 1.7016473964414 1.5351624480909 1.2888216717425 1.1617413042794 1.2990944097114 1.0114795255882 0.32484964691346 0.73717050738315 0.62994981642376 0.86757475023284 0.58446156588245 1.6993235648657 1.6482158939837 1.3526946525182 1.294669997796 1.402277863866 1.2507060971503 1.280139038735 1.3459834989902 1.2149500832361 1.2234325390304 1.1802785852592 1.2717821135914 1.3659301743393 1.1381338246217 1.2432438950897 1.2161252958466 1.2281861225538 1.1431006113004 1.1444517742191 1.2946770648122 0.91184428209551 1.4430001336068 1.1087741114101 1.0123279608462 0.98023085877727 1.1618603054559 1.1455031673568 1.262629535373 1.5011589447469 1.4370244250966 1.2426737003057 1.238980914663 1.2631141240169 1.436451709943 1.2656754673339 0.94713624358622 1.0844009947074 1.0944330292777 1.2524968135037 1.1277063878982 1.3173459232611 1.2451990327326 1.0344078777487 1.1213773314835 1.0228603323179 1.0373089637241 1.1719542288467 1.2683502550729 0.9864789027045 1.387480179712 1.3527099118649 1.3804678462178 1.1425710765962 1.0694241501942 1.1279327807774 1.178187182299 1.1331704830912 1.0192505432089 0.95934488715115 1.003437947759 1.3719108780576 1.4360192228032 1.1363604026567 1.0266754699795 0.92682128526952 0.98486235090954 1.038769054167 0.96850063723855 1.1666703219961 0.97851527997697 1.0039230383926 0.89997967729833 1.0882846328158 1.3278282715499 1.0790838436284 1.2576966924412 1.2397321453254 1.6933887458545 0.99007144685341 0.92062107100921 0.61847895930626 0.7991501156205 0.91461342307178 0.92376662203721 0.83834299106617 0.86560387501664 0.9413983123967 0.99831793172489 0.87455002394454 0.92233889314683 0.94631061571699 1.0035732133673 0.93410706878464 1.0460592253831 1.0303499894658 1.1066915783105 0.83708216615819 0.83915623542636 0.99473594269217 1.0041247217439 0.91089405281925 0.97125183449678 0.91082838677017 0.91573721444099 1.1201470721019 0.88063947677863 1.1470754447957 1.1942378943297 0.9647741272007 1.1096360260908 0.85513355673651 0.89177118708277 0.92870813106194 0.92174868091044 1.0861913903593 1.3696029286398 1.3758077878377 0.91487108293916 0.87907538720624 0.90128925736926 1.0037260072538 0.93542366977766 0.97495188865649 0.89049810193999 0.91420719470073 0.89865224554626 0.93862401535552 0.91750366265319 0.85035131075364 1.3886505554994 0.87236579896002 0.89443608788247 0.87393841114493 0.85338728385033 0.83286348444062 0.79859042628833 0.87346269131482 0.91635745248317 0.87490164034021 0.84244845236897 0.88135317017651 0.87716780290264 0.76519800291806 0.84045897536731 0.86534231950019 0.8596081832221 1.347699196659 0.8083710144147 0.84635068007846 1.0819142960512 0.8543114351994 0.77350333072467 0.83685336846105 0.72452511519167 0.8701382624708 0.89462033845533 0.83409780606272 0.78875264256835 0.83121390102704 1.459194578027 0.80096333062682 0.82714624332312 0.77799008006406 1.2423675306035 0.87337708368736 0.83309643141085 0.88467547651112 0.86861531563653 0.81892602667834 0.79334543560275 1.1938712610817 0.76697979290271 0.79444014105791 0.75685346170064 0.80585862981282 0.78211644706771 0.81454514467056 0.7575565283097 0.80884130765543 0.74644116593717 0.75334368294722 0.89143535774358 0.80896323457402 0.7968091224204 0.89648665944125 0.7749528116327 0.83043855665568 0.92827752571707 0.84683129990086 0.88202292819703 0.67804225467878 0.74675699737945 0.66852980455375 0.75216698652942 0.78418970855942 0.75496371188996 0.78898797748677 0.66349078882728 0.73788573004093 0.72087440466856 0.75638611492869 1.0025902401247 1.0709228899126 0.64869899323658 1.110951749993 0.72577427242967 0.58871418057907 0.6443655976533 0.99570690416738 0.656894350194 0.81920235863257 1.0422480062914 1.5003356132231 0.78298971878471 0.71495361541906 0.72322695987515 0.77028732374885 1.433044559241 0.62428744786369 1.5159025212125 1.1563276036915 1.7031005785357 1.3705094704765 0.89626638842488 1.0459747225304 1.5393944833779 1.4205363739525 1.4228522197722 1.2664042033677 0.87599397541787 1.2243930467016 1.1054131414585 1.2714287702044 0.54875844697707 1.2566365933972 1.1206785856414 1.1706982071285 0.86501891959425 0.994637356366 0.77222371011066 0.85250729597199 0.98998601778073 1.1637257604884 0.96760474215148 0.47302995327221 1.4922071020263 1.2725153555915 1.1645090202479 0.84123523783857 1.3116540230064 0.24800080199546 1.0488448796249 1.400677558231 1.2931750048017 1.021221803334 1.2216307551414 0.76778841526176 1.3547885998955 0.64151130982821 1.0164669425461 0.73349739081685 0.63518541258311 1.4740566534804 0.979355176011 1.6718833165013 1.5571086665183 1.4734146448732 1.158189197458 1.3695072637189 1.3738684902032 1.1356919945927 1.2592718606771 1.2133254852649 0.91025982461954 1.5654532590349 0.90159394383803 1.4652622719376 1.2607484266579 1.3653352008615 1.3903525036207 1.3215506409411 1.2854897005383 1.1088976315589 1.1649130368337 1.3700822070881 1.2869940839527 1.2437195349124 1.272919113201 1.1600222585073 1.2899643722981 0.98359588478777 1.1836372145943 1.253642115595 1.126065747803 1.3107286794903 1.1648359931028 1.0618816851927 1.1645346047402 0.97107652271935 1.1463221630556 1.0849876717985 1.0771529639798 1.329342624657 1.2652477299536 1.3762096122915 1.3914002403532 1.1451408252982 1.2379985394666 1.3707431411182 1.774338631869 0.98206303275716 1.3643872883144 1.0262387324386 1.0461588703004 1.2374224643544 1.3322307050869 1.5432389789598 1.4613443738997 1.1315810198716 1.1631659282641 1.0358110705429 1.1381452212096 1.0161385102522 1.388569540291 1.3307788896295 1.4505686784114 0.9968430380245 1.3591654555553 1.0262549884995 0.97579034643187 1.0718379140228 0.95807279795537 0.9593310912578 0.99232912143533 1.0615455889751 1.1955682894387 0.75985876372153 0.92212921424749 1.0236229321212 0.9620011237514 1.1583238538652 1.1036557393725 1.1224697939836 1.0688677333625 1.2828551643272 0.72435058629775 0.92461378239433 1.0555122959106 1.0339741014435 1.1372174544439 0.91473471847894 0.98126364286502 0.62220048342705 0.7721408177482 1.0124742621487 0.82080893665148 0.3003519492876 0.83918425973451 1.3297929924954 0.69982330653347 1.195614143594 0.58956188024439 0.62772808985903 0.79217707221158 0.71616504901375 1.0603463990169 0.60541794538928 0.69057857774301 0.63011050978008 0.6326040489882 0.72909632910052 0.75344635095363 0.77732610490799 0.78791846596826 0.68860342833974 1.1026924987659 1.3122627829122 1.2151192210225 1.1456286987612 0.83422060389201 0.63884280226266 0.98937587154072 1.0005728342052 0.94201729837998 0.83632013587151 0.30074669307778 1.2881401278862 1.2530084676213 1.1847413254733 0.42424960233066 0.84905746222746 0.59943096270564 0.55815186937738 0.79261044435692 0.80837330464379 1.0400923820629 1.024261923503 0.51837799830973 1.4276841043555 1.2887334283966 1.3514314569997 1.1235348978069 1.0225478661927 1.4632408872222 1.2125566285272 1.2704640078839 1.2228587119393 1.1080324416617 1.2115760738667 1.0655319659623 1.3484724522309 1.0979108676002 0.9621103715823 1.1316056291212 1.0056634239715 1.2436766020276 1.044768708118 1.3080992965949 0.91145325408808 0.96841619669851 1.0157780022627 0.80865809713481 0.97533926575002 1.0029126193018 0.94002400921533 1.2072530317809 1.024162443436