# vtk DataFile Version 3.0
d-2__ created by libgimli-v1.5.0-1-g5991b6ac
ASCII
DATASET UNSTRUCTURED_GRID
POINTS 3056 double
16.047984885364	9.2005108665658	0
16.227640130622	9.31797770521	0
16.052808675398	9.4151062914457	0
9.6856707273838	12.779965388042	0
9.5840448320983	13.008863982168	0
9.459889155087	12.888340064957	0
9.4017034496321	12.989518397958	0
9.4966291044861	13.057428275285	0
9.409213376874	13.105992568403	0
6.9615730037337	14.465792775704	0
6.8666473488796	14.397882898376	0
6.9945996683525	14.319328169198	0
10.283370652996	12.620349637225	0
9.9337077425469	12.814606809696	0
10.035333637832	12.585708215571	0
10.370786380608	12.571785344107	0
10.246630703596	12.451261426896	0
3.2	14.888006064741	0
3.3935321886838	14.815842352641	0
3.3	15	0
10.363276453366	12.455311173661	0
3.05	14.894536113346	0
2.95	14.834347813918	0
3.0997032337695	14.698789777549	0
22.54986393823	5.4610590293129	0
22.601478319067	5.6563101371606	0
22.484832569298	5.6522603903955	0
7.8357302798552	13.980149844525	0
7.7483145522431	14.028714137643	0
7.7115746028439	13.859625927314	0
8.7098875559768	13.494506913346	0
8.6224718283646	13.543071206464	0
8.5857318789655	13.373982996136	0
21.698091020789	6.0893390284563	0
21.734830970188	6.2584272387846	0
21.639905315334	6.1905173614571	0
4.9002967662305	14.698789777549	0
5.05	14.834347813918	0
4.95	14.894536113346	0
8.5275461735105	13.475161329137	0
8.5350561007525	13.591635499582	0
23.708017310135	5.0679061559452	0
23.57570494199	5.2584272387846	0
23.492391392804	5.1534065041647	0
7.9373561751407	13.751251250399	0
5	15	0
4.9	15	0
25.208739718026	4.888006064741	0
25.308739718026	5	0
25.108739718026	5	0
6.7500015991102	14.393833151611	0
6.8150329680421	14.202631790528	0
7.6608988246309	14.077278430761	0
7.653388897389	13.960804260315	0
12.90584248136	11.163420843689	0
12.869102531961	10.99433263336	0
12.993258208972	11.114856550571	0
14.304494123155	10.386392153803	0
14.40612001844	10.157493559677	0
14.654157033603	10.192134981332	0
11.237433729487	11.969668242483	0
11.18581934865	11.774417134635	0
11.36538604896	11.891113513304	0
11.120787979718	11.965618495718	0
11.885664010266	11.385614544848	0
12.082360983452	11.431411271421	0
12.024175277997	11.532589604422	0
13.080673936584	11.066292257453	0
12.98574828173	10.998382380126	0
13.867415485094	10.629213619392	0
13.77248983024	10.561303742065	0
13.830675535695	10.460125409064	0
10.909490913954	12.100065284392	0
10.844762499738	11.765076855645	0
12.934133900893	10.803131272278	0
3.6	14.810067208388	0
3.7	15	0
3.5	15	0
12.657805466197	11.128779422035	0
12.556179570912	11.35767801616	0
11.244943656729	12.086142412928	0
11.157527929117	12.134706706046	0
1.3	15	0
1.2	14.888006064741	0
1.4	14.810067208388	0
1.9	15	0
1.5	15	0
1.7	14.849260526121	0
12.119100932851	11.60049948175	0
2	15	0
2.05	14.894536113346	0
2.1	15	0
12.031685205239	11.649063774867	0
1.0997032337695	14.698789777549	0
1.05	14.894536113346	0
0.95	14.834347813918	0
11.332359384341	12.03757811981	0
5.7	14.849260526121	0
5.5	15	0
5.503868896942	14.598288840263	0
4.064468339761	12.492321883392	0
3.9817116885018	12.918420923089	0
3.7670358212135	12.67328000924	0
13.779999757482	10.67777791251	0
25.602637769837	4.524993056905	0
25.708739718026	4.8492605261212	0
25.458739718026	4.8343478139176	0
14.734062833973	10.027096517768	0
14.682448453136	9.8318454099206	0
14.862015153446	9.9485417885899	0
-0.24940646753892	14.834347813918	0
0.05	14.834347813918	0
0	15	0
15.804771660235	9.3804648697915	0
15.703145764949	9.6093634639172	0
15.578990087938	9.4888395467067	0
29.767533861964	4.3398980943704	0
29.508442951795	4.548348532907	0
29.495546029131	4.1485808085627	0
0.1	15	0
0.3	14.849260526121	0
27.458739718026	4.8945361133462	0
27.358739718026	4.8343478139176	0
27.508442951795	4.6987897775495	0
0.5	15	0
16.678928936356	8.8948219386129	0
16.4287009421	8.6628888321103	0
17.028591846805	8.7005647661415	0
1.1	15	0
1.95	14.834347813918	0
20.105956534257	6.4151422964054	0
20.247470662652	6.669867727517	0
19.925330046586	6.7203171073957	0
21.501394047603	6.0435423018831	0
24.087916739041	4.9470663132613	0
23.750549209437	4.5440302871062	0
2.3	15	0
2.2	14.888006064741	0
2.4	14.810067208388	0
26.308739718026	5	0
26.358739718026	4.8343478139176	0
26.408739718026	5	0
25.008739718026	4.8100672083876	0
24.908739718026	5	0
3	15	0
2.9	15	0
1	15	0
21.472583787351	6.4041201181382	0
21.297752332127	6.5012487043739	0
21.301387084399	6.2885606170178	0
19.199774869435	7.6667917392027	0
19.112359141823	7.7153560323205	0
19.104849214581	7.5988818618751	0
6.1791038580454	14.704649136022	0
6.0874157276122	14.951435706882	0
5.95	14.834347813918	0
6.8741572761215	14.514357068821	0
6.7867415485094	14.562921361939	0
16.402471585846	9.2208491189743	0
16.260666795241	9.171513098704	0
16.394961658604	9.1043749485289	0
6	15	0
28.922845333402	4.5823118347521	0
28.708739718026	4.8492605261212	0
28.602637769837	4.524993056905	0
4	15	0
3.95	14.894536113346	0
4.05	14.834347813918	0
28.108739718026	5	0
28.208739718026	4.888006064741	0
28.308739718026	5	0
7.136404458958	14.368664189468	0
7.1315806689246	14.154068764588	0
7.3112359141823	14.271535603232	0
23.945942620228	5.1435706882137	0
23.403806383266	4.93902940218	0
3.9	15	0
4.1	15	0
27.608739718026	4.888006064741	0
27.80227190671	4.8158423526409	0
27.708739718026	5	0
17.36404458958	8.6866418946778	0
17.356534662338	8.5701677242324	0
17.451460317192	8.6380776015599	0
5.3	14.849260526121	0
5.1	15	0
14.617417084204	10.023046771003	0
5.9	15	0
6.5387045333462	14.528279940285	0
14.998996154018	9.7832823839802	0
15.178651399276	9.9007492226244	0
15.003819944052	9.9978778088601	0
4.3	14.849260526121	0
27.508739718026	5	0
16.453147364059	9.0031966155281	0
16.256450390874	8.9573998889549	0
22.871235429146	5.6270914282524	0
22.72943063854	5.5777554079822	0
22.866411639112	5.4124960033725	0
21.122920876903	6.5983772906097	0
20.948089421678	6.6955058768454	0
20.981116086297	6.5490412703394	0
1.8827233936571	13.413209492963	0
1.635985724768	13.057931042977	0
2.0585343714792	13.116469985366	0
13.63397856251	10.414328682491	0
24.321832839145	4.8833962425865	0
24.408739718026	5	0
24.316180298466	5.0287141376427	0
24.708739718026	4.8492605261212	0
24.508739718026	5	0
24.458739718026	4.8343478139176	0
23.483145522431	5.2871413764274	0
9.2631921819019	12.842543338384	0
25.358739718026	4.8945361133462	0
25.408739718026	5	0
25.508739718026	5	0
12.206516660463	11.551935188632	0
3.1	15	0
12.308142555748	11.323036594506	0
24.679068235604	4.239790780138	0
25.006267059794	4.3425605622482	0
24.599747236054	4.5734506034563	0
22.521572518697	5.8213486007239	0
22.608988246309	5.772784307606	0
11.502367049532	11.725854108695	0
11.68202229479	11.843320947339	0
11.507190839566	11.940449533575	0
10.491228772839	12.376756444483	0
10.633033563444	12.426092464753	0
10.45820210822	12.523221050989	0
22.696403973921	5.7242200144881	0
23.395729794819	5.3357056695452	0
23.358989845419	5.1666174592169	0
2.8061019481889	14.524993056905	0
2.7	14.849260526121	0
26.108739718026	4.8492605261212	0
25.908739718026	5	0
0.9	15	0
26.458739718026	4.8945361133462	0
27.308739718026	5	0
27.408739718026	5	0
29.358739718026	4.8343478139176	0
29.408739718026	5	0
29.308739718026	5	0
26.508739718026	5	0
27.108739718026	4.8492605261212	0
27.214841666215	4.524993056905	0
28.408739718026	5	0
28.358739718026	4.8945361133462	0
28.458739718026	4.8343478139176	0
28.508739718026	5	0
21.923872593085	5.9809643515411	0
21.8222466978	6.2098629456668	0
26.708739718026	5	0
26.608739718026	4.888006064741	0
26.808739718026	4.8100672083876	0
28.908739718026	5	0
29.108739718026	4.8492605261212	0
14.056457107991	10.351750732149	0
13.954831212706	10.580649326274	0
29.658146185565	4.8343478139176	0
19.54461398985	7.2579391418513	0
19.724269235108	7.3754059804955	0
19.549437779884	7.4725345667312	0
21.647415242576	6.3069915319025	0
13.250681601775	10.754568246337	0
13.430336847033	10.872035084982	0
13.255505391809	10.969163671217	0
9.2674085862685	13.056656548133	0
16.489887313458	9.1722848258564	0
16.577303041071	9.1237205327386	0
17.626291772416	8.5409490153242	0
17.484486981811	8.491612995054	0
17.621467982383	8.3263535904443	0
21.284504402929	5.7190625713937	0
21.673644598829	5.7490312450385	0
17.276628861968	8.7352061877956	0
16.926965951519	8.9294633602671	0
17.239888912569	8.5661179774673	0
18.11404618869	8.0804750462887	0
17.902749122926	8.2149218349628	0
17.83802070871	7.8799334062158	0
18.238201865702	8.2009989634992	0
18.150786138089	8.249563256617	0
8.5612854570062	13.033675212718	0
9.0547266763919	13.085654315995	0
8.8115134512622	13.265608319221	0
14.741572761215	10.143570688214	0
9.2343819216497	13.203121154639	0
9.0595504664254	13.300249740875	0
9.4354427331278	12.548032281539	0
9.6630878033521	12.327490919146	0
15.615730037337	9.657927757035	0
15.520804382483	9.5900178797075	0
9.9706052236163	12.250719786823	0
14.828988488828	10.095006395096	0
15.528314309725	9.7064920501529	0
19.986516417945	7.2297131011419	0
19.949776468545	7.0606248908135	0
20.073932145557	7.181148808024	0
20.175558040842	6.9522502138984	0
25.309036484257	4.6987897775495	0
20.860673694066	6.7440701699633	0
20.853163766824	6.6275959995179	0
22.273535503534	5.7867071790697	0
22.208807089318	5.4517187503226	0
3.1317176073544	14.309812537406	0
20.736518017055	6.6235462527528	0
19.891590763091	7.1618032238144	0
19.899100690332	7.2782773942597	0
28.008739718026	4.8100672083876	0
27.908739718026	5	0
18.23069193846	8.0845247930538	0
28.309036484257	4.6987897775495	0
27.895939159663	4.4709363375124	0
28.265207298324	4.2898533340251	0
18.988203464812	7.59483211511	0
23.147692779655	5.301064247891	0
23.04606688437	5.5299628420167	0
19.024943414211	7.7639203254384	0
20.773257966454	6.7926344630811	0
20.423595056005	6.9868916355526	0
20.525220951291	6.7579930414269	0
18.325617593314	8.1524346703813	0
22.171909608248	6.0156057731953	0
18.358644257932	8.0059700638753	0
18.500449048538	8.0553060841456	0
13.113700601203	10.919827650947	0
18.179077557622	7.889273685206	0
[...]
CELL_DATA 5825
SCALARS Coverage double 1
LOOKUP_TABLE default
2.2566270528422 2.3044698539342 2.8913594826672 2.3508906859521 2.2912893278319 2.8682868162962 2.1173898182302 2.3410256509142 1.823072204991 1.8927942817042 2.808665290803 2.8439206761959 2.2979264026216 1.8695395433104 2.8730673986179 2.3161891516061 2.2577989763219 2.8352789700684 2.4065470555315 2.4237163196191 2.2060513565724 1.8965072686029 2.8418425098377 2.9044975409494 2.3346453230835 2.2105691193693 1.990665765748 1.9986946235947 2.9375656619016 2.451500852607 2.0887355829014 2.3682199972896 2.0048462233317 2.0818125711022 2.3151627536923 2.8770559034245 2.0230737348979 2.1193965901986 2.4324992085337 2.7687629627922 2.9186603998792 1.6034008782457 2.9135854520907 2.3720663569566 2.0155291187921 0.83717485546629 2.9485566307584 1.9357639242724 2.2582062250071 0.97509160758404 2.3485454993487 0.77849875821878 1.9099871810505 1.6082433001003 1.6635483089252 1.5986168373334 2.105390660974 2.2013337993579 2.7590653989186 1.7375695457592 1.9054482687833 1.9353203209092 2.0832263067418 2.6856916220425 2.0586954840953 2.7964548441009 2.1339072887577 2.7491588328818 2.1584876740054 1.8618555269742 2.9038816488744 2.0661885221877 2.8036801337336 2.4574862504072 2.5086552785267 1.5877323346866 2.2823589718548 2.2501663512569 2.1361227992696 2.1603916832873 2.2243284449718 2.0973886099245 2.8297453893125 2.7851381660803 1.9696717773795 2.9300791533262 2.1927687351185 2.0135233113358 2.555511666233 2.2625283280867 2.2511985728108 2.2109246954552 2.1543151597476 1.9969245539259 2.1587098549167 2.3800941743338 2.3452313133429 0.78877706275939 2.0115897287504 2.8479010426273 2.2468795284128 2.8831475120832 1.9787620600349 2.7245372710458 2.7058598564125 2.894213576627 2.0928183257821 2.8141237898632 2.3331279641931 1.5071671897685 2.816272451655 2.2316077431419 2.86399322116 2.4012956467178 2.8478187438956 2.8585040968304 1.9870245444481 2.3586518387703 1.9284062115052 2.0718731049933 2.2130574933037 2.7224316781122 2.1772059836099 2.6654290708278 2.2380751866326 2.7216808544968 2.1423268459294 2.2463098279094 2.7308549465212 2.229286526275 1.8061381185918 2.2404112935302 2.6976827353161 2.2626385177851 2.0170379670829 1.8371612109268 2.3540909866256 1.5417525230683 2.709290903624 2.0695332093245 2.8339131026816 2.1905417344436 2.794887235143 2.8626926856192 2.25245905156 2.423468990716 2.9004862417424 2.3415821721375 2.2615528747264 1.6902722226949 2.316837478802 2.9014046635448 2.9209173856767 2.0540364839222 2.8876878613535 2.046688218638 2.9157046966807 2.4516982726957 2.2095365786334 1.8636017574981 2.4253054727051 2.0879811635094 2.9531882564775 2.3189643498673 2.9007940449979 2.9319530483378 2.8320501935694 2.2829181446651 2.4189001376097 2.841835198285 2.8607135526901 2.3042836262576 1.7665347428432 2.9044378814473 2.8740801266279 2.3140810493589 1.9593935120873 1.6007177488974 2.3965744302516 2.8975693304928 2.1179131577041 1.9299247441347 2.363113154994 2.441043146004 1.4089052198338 2.1578628300861 2.4127261513528 2.2031746532726 2.8743099637903 2.3193742405591 2.2511557506095 2.9209401922848 2.9351322401784 2.4270650765277 2.2104723783212 2.400007915672 2.8405583569832 2.2210489086613 1.9881397707253 2.2860448426738 2.2472043935629 1.9847753615649 2.2593955260013 2.3702444817674 2.2025208465219 2.3994240268701 2.4352661144811 1.7655449552477 2.238360933469 2.274322905024 2.288438227924 2.2964057098156 2.1065884548392 1.7301592337149 2.186167943917 2.3372000232997 2.3893806191479 1.9918220474165 2.4127857398781 2.4317621928677 2.4708520269212 2.424693069437 2.4568105008684 2.2338360117901 2.3696408346971 1.9744316109365 2.3848083460743 1.9645021960225 2.1120507442849 2.3045388313816 1.8926296709915 1.7488032248221 2.2006387459447 1.927198818487 1.9550034551423 2.2312785543071 1.8868941247395 2.0067205874118 1.5434579740652 2.0753998564315 1.5126456576935 2.0029801068157 1.8976103443176 2.3258860157269 2.1871280249678 1.7403158569871 1.9055760727159 2.1706557906806 1.9421839375021 2.4097673007551 1.8194064649894 1.9525483707568 2.1847386152294 2.1787099757418 2.3350062470529 1.953696629349 2.0417721034016 2.0509673811355 2.3088382353492 2.1966287796256 2.2030275353522 1.9478350596795 2.1744799172488 2.1650954453326 2.3770525921929 2.3299676881758 1.842223270207 2.3826753499433 2.1686758638928 1.8617752671785 1.9240689056266 2.3305121428577 1.5162685935779 2.033702240104 2.1698446791323 1.459725384951 2.2435262811212 1.475275139861 1.8357848884265 2.1780915857138 1.5625921086843 1.9936056434596 2.4247331501199 1.8184117006253 1.933488569382 2.1607182523211 2.0755975225677 2.3074060387554 1.9394789953328 2.1487482225669 2.3330451662721 2.2432300164456 2.2507454813169 2.2411008595441 2.4488100262246 2.4099576247278 2.0754285847517 2.1817333332179 2.2779197067379 2.2489068586296 2.4567564561633 2.4190050030863 2.2748830720259 2.2586518018158 2.469120814179 2.4326689356903 1.737126093972 2.3711535622129 2.0253337916912 2.4063910220434 1.7562717729256 1.7727866773651 2.0402328974847 2.1578358876952 2.2636192404583 1.8444449885017 2.2049150396799 2.0838909484439 2.1182611990492 1.8785587101945 2.3100763177814 1.883625921308 2.2556693896296 1.9670432735327 2.3613427320642 1.9743357185112 1.9605644224986 1.7583056991066 2.2107148144875 1.8355302395644 2.2383178673504 2.214037580843 2.3252813262808 2.1043437865395 2.1811578273396 2.0969714772869 1.8454257346435 2.0468965820708 2.4398151829891 2.0633655728131 2.4477144408209 2.0809223699439 2.4302914255105 1.9112919513471 1.7813404075165 1.7613935009922 1.9942328097499 1.78797083262 2.0924064296267 1.9297885754321 1.8682245909874 2.1146858328583 2.0994742468771 1.9244010192192 2.1800382290422 2.2154688944355 2.2123183576145 2.0108416346048 2.426019302564 1.8785513322093 2.1919223011104 2.251098787954 1.9054132527727 1.8070471916827 2.0882716423461 1.9631301695264 1.9698322277023 1.5867461596307 1.9712328642602 2.2866502580277 2.1502672357769 2.2089104396445 2.0942378594779 2.040060845701 1.8226330482827 2.315855103423 2.3097307372298 0.73629516829295 2.221305071498 0.99340260781594 2.333261406432 2.2705514757989 2.0579326484635 1.8556880938105 2.2271135905162 1.9715916314589 2.0626126274822 1.7690722417203 2.1284663393106 2.0079137825893 1.9937309099713 2.2257643871766 2.2379460818239 1.8804848173967 2.2362496727662 1.8560497589725 1.9992732713136 2.1450906073122 2.1268028872325 1.921088677451 2.2781675396499 2.2309039601423 2.2176974571781 2.1931890737954 2.240459772961 1.8959738662726 2.3278892863182 2.1842430246601 2.0400033655713 1.0483091763001 2.0947257777225 1.6843614128342 1.6620528527207 2.1411796210864 2.0767636509369 1.79724255353 2.1006797265236 2.0468146686993 2.0032606963471 1.7221989482697 2.1029104278314 1.9753825612631 1.7463710315257 1.4238379440742 1.7976784915901 1.8215622728555 1.754954564992 1.9143193124881 2.3371047361861 2.2070774564996 2.0884440097287 1.9206324001596 2.3495528892338 2.159402756182 2.0783505896845 1.8296064189733 1.6515960218453 2.2315343715105 2.0982452103235 2.0216071615626 1.9316793065276 1.8311221447949 2.3588741920823 2.1776849326428 2.0979799126577 1.8700084767585 2.268376964756 2.1147991245277 2.0547970952895 1.1588842916094 1.2363874546268 1.5160828425994 1.2963427943985 2.1854250913348 2.0774345513631 1.9003883773986 2.1802147735038 2.0107374280688 2.1157831666292 1.9594258769735 2.0217949851181 1.9387564357705 2.1828117528128 2.0921525323048 1.9119133916052 2.2062727292879 1.9910757743466 2.1392250321001 2.2659517047674 2.1514704363643 1.969916234743 2.239705111906 2.0599696414608 2.174126758162 2.0824530415856 1.9715753095982 2.0103949135523 2.2728558764593 2.1773675221184 1.9989788588556 2.2400973355357 2.0680257019613 2.1758737560534 2.284046944071 2.1642568523175 1.9820750994052 2.2526254919365 2.0649375153937 2.180221412943 2.2197042648097 2.0207201198616 2.1458166429076 1.9674442783599 1.8095528730738 1.5826435220501 2.0885615992658 2.0844983346454 2.0030881371078 2.0267725225737 1.9952907451351 1.8154716529069 2.032335608196 1.9184862541983 1.6880958911246 2.0722777875696 2.0534154515187 1.8352927953021 1.9506582565202 1.9286246424634 1.836818657309 1.8674844860848 1.8801504966393 1.6968889160013 1.9524094246169 1.9344157645892 1.7266386187737 2.2350444096382 2.0922021908614 2.1666687889171 2.1288637026647 1.977557477614 2.0717424916413 2.1699675691147 2.142884959829 1.9256500476459 2.1948275610735 2.1489839817224 1.9289809205698 2.1983652553315 2.1473039094141 1.9143406348092 2.1774815762541 2.2024710070022 2.1033329790677 2.1420494348535 2.1379607359272 1.9555102227485 1.8254387685647 1.8785954497382 1.9394850487414 1.8223380633739 1.6923547329736 1.5283747471783 1.8203315823919 1.6046188346048 1.4923542838368 0.74020130492148 1.925787492386 1.8861816310292 1.6650263478714 1.3968691666617 1.5958128333747 1.6666203448122 1.7805325412757 1.9058709008758 1.5933138006576 1.6925976101963 2.0558304311219 1.5306631617792 1.9358562085201 1.3745953819236 1.1105299758419 1.732721752879 1.6133783611466 0.62679679388002 1.7484921353896 1.7091996844494 1.7978250920723 1.6245904240668 1.727323889692 1.6386391039458 1.6042696857535 1.6345795413984 1.6621062006617 1.1219987993272 1.7214631199669 1.8389142500377 1.3975770404023 1.7741032351609 1.7779538425176 1.7765928095967 1.5860538159342 1.7782420046963 1.8843431027643 1.8057314444345 1.5215678479706 1.7899166427686 1.9977402711476 1.7613877592822 1.7867154511698 1.9921389210562 1.9188574888882 1.6672280115801 1.4773167097455 1.6995172724226 1.4997212219087 1.4356726645147 1.5906591486452 1.7756920095914 1.4643070818383 1.5695487904501 1.4545889222554 1.5469738805743 1.4261550498019 1.3529076884764 1.0270037031542 1.2088615247146 1.3980029295066 1.2158267989947 1.5563924902397 1.5300991845862 1.7349058780916 1.4145809628552 1.7036798600331 1.6901480687492 1.5162669053806 1.6857474737406 0.63268140572854 1.0376982553021 1.3491703237195 1.141772948818 1.2000936556873 1.5760568354368 1.5088103655435 1.2306650676892 0.603859809682 0.91133417042131 0.46635245693573 0.58781281743183 1.7186476020801 1.7324890094398 1.6122644975622 1.5477182554498 1.6322870510578 1.5896909247155 1.3078490960454 1.0392751350931 1.4679341036703 1.8221204963494 1.2361054264931 1.854945271454 1.2569728663114 1.297032759274 1.7708056623273 1.5521685454219 1.4290364975839 1.5096988321618 1.3791694051559 1.5483387030274 1.6869328436454 1.4583124247274 1.4329489419778 1.3646071190376 1.7449162627605 1.54416399291 1.4843434848829 0.98533669439131 1.7691889220885 1.5978579226523 1.5958599981476 1.4570205657689 1.759822107637 1.5565596294135 1.3071491288032 1.418042407687 1.407293791577 1.5496180526924 1.2620557570992 1.2790410403777 1.5085200432853 1.0805559545863 0.90186183993838 0.9981524047866 1.7096668832265 1.460532587899 1.7250852922697 1.5293326005613 1.7368817577061 1.4066913285581 1.6870326182003 1.3230251837386 1.4898504549457 1.3120443547274 1.2016719545407 1.518002810836 0.95174744699279 0.55604795227892 0.93032164331555 1.036565285858 1.3715050711531 0.94360974627239 0.67607989238968 1.2981329609494 1.1748088096363 0.11223564716883 1.5038117711034 1.2158141569333 1.3676278807277 1.251881841203 1.5069096752181 1.3743292952336 1.5550924562832 1.4691441527422 1.3492738874835 1.2056415201825 1.5487865147452 1.3496543694065 1.5985664746262 1.3825662456741 1.4150977832376 1.4650356834003 1.595314520753 1.4154585115694 0.93876892730563 1.4108871634858 1.3968664693393 1.412163771528 1.0912380167488 1.415294843591 0.68467346846452 1.0455652491241 1.0908374620663 0.57789488851045 1.3704927789832 1.1645318819324 0.96279285234541 0.88607496352962 1.4754663376432 1.4243786188633 1.3489078005935 1.3157221270328 1.4948744439988 1.1808096841381 1.5428804536539 1.3214195060465 1.4410003793775 1.2615013697827 1.60019285587 1.3607960905049 1.6205477306702 1.4161794476895 1.3854924740686 1.4812570084149 1.6215529052731 1.4002345701002 1.402352199302 1.4689548497823 1.2912965194105 1.05208591171 1.3751817538099 1.368737403346 1.3932347698547 1.313511796394 1.3330629098922 1.5948047807518 1.5436811401172 1.3345473422467 1.3257862868865 1.4239658601139 1.810102797903 1.551176374552 1.3081230566451 1.3509658144572 1.9978616554896 1.6107571881136 1.4073057840898 1.3255941491681 1.999354153013 1.5982564149661 1.3845220573681 1.2751189873325 0.91161244397163 0.90301204544507 0.91667748438617 1.2916489201775 0.67432478254421 1.2483902669377 0.93797036754479 1.3171852540989 0.86734408165612 1.9057785323187 1.5670363357153 1.2219119702584 1.2379385812797 1.8118961370114 1.5285070589544 1.9961407303963 1.7894180180341 1.9866143487856 1.7959120416215 0.75168456247664 1.1488629406499 1.3261692954316 1.1544721848399 1.0642492939302 1.1978841836398 1.2906007466903 1.483197015335 1.2144800811241 1.3041359947557 0.91126581686201 1.0963410084551 1.9389044470648 1.7017000357398 1.5351287137326 1.2887864223758 1.1616957710948 1.2990468777786 1.0114522764928 0.32489117203379 0.73718155605356 0.62996605832026 0.86760034472086 0.58447850116131 1.6992658399469 1.6481774249316 1.3526875611083 1.2946614513886 1.4022353191305 1.2506116995887 1.2801466276707 1.3459294713243 1.2148982214808 1.2233860472892 1.1802320944526 1.2717512409375 1.3659170741774 1.1380702278081 1.2432286482522 1.2161307286596 1.2281627690949 1.1430688932847 1.1444290474963 1.2946721653858 0.91189311120736 1.4430243521043 1.1087583213006 1.0123100817548 0.9802066490288 1.1618385943685 1.1454846220426 1.2625803570731 1.5012172991035 1.4370445210153 1.2426858284825 1.2389765529157 1.2630971901683 1.4364882199462 1.2657577897987 0.94713760368031 1.0843458563713 1.0944166509785 1.2524765326895 1.1277015254934 1.3173250130692 1.2452051251881 1.0344150612712 1.121384961133 1.0228440092865 1.0372670623874 1.1719057342037 1.2683390902198 0.98646960177697 1.3874772918156 1.3526641683877 1.3804275406859 1.1425819513614 1.0694719500946 1.1279717860456 1.1781185504484 1.1331344388467 1.0192648509947 0.95933942276372 1.0034079491403 1.3718997343004 1.4360114755572 1.1363415043877 1.0266613627771 0.92677914966384 0.98485582586851 1.0387640380171 0.96851841922419 1.1666849962165 0.97853471522205 1.0039187475722 0.89999165748486 1.0882517399402 1.3278378978438 1.0790581226548 1.2576752157885 1.2397563482998 1.6934088656025 0.99005648778804 0.92065026748951 0.61846364304731 0.79918265968343 0.91464287397349 0.92378042324698 0.83839380944807 0.86562095325359 0.94140948970963 0.99830447858568 0.87452787505886 0.92232404210198 0.94631708441479 1.0035867323104 0.93410022546802 1.0460307417321 1.0303158726217 1.1066639833218 0.83709174695558 0.83921438298392 0.99475852543663 1.0041118704523 0.91095938060356 0.97127870247791 0.9108091371486 0.91579311670955 1.1201906270408 0.88060128906701 1.1470164385717 1.1941488152271 0.96476188822106 1.1096377777506 0.85517004269677 0.89179907301921 0.92875681061819 0.92178086921178 1.0861787576933 1.3696238530732 1.3757970460337 0.91488881792308 0.87910053391181 0.90131718963356 1.0037172330803 0.9354139420241 0.97495072563643 0.89050834666529 0.91422703733735 0.8986783931727 0.9386190330054 0.9175354798501 0.85040292533664 1.3886095846783 0.87238828940773 0.89447325253109 0.8739588069791 0.85341264555042 0.83292456616681 0.79859184463151 0.87351125324638 0.91639732143569 0.87495380636851 0.84243707613501 0.88140583060657 0.8772383644466 0.76522208429244 0.84047228223082 0.8653346481524 0.85966152900864 1.3476965792125 0.80837222380656 0.84636861175824 1.0819304947746 0.85429269858643 0.77352666205808 0.83689717958188 0.72451594546072 0.87019143567027 0.89466459801345 0.83410439614474 0.78876664714605 0.83124626404465 1.4592406095018 0.80098786780652 0.82716044691087 0.7779952398882 1.2423353593526 0.87338510122922 0.83313496179391 0.8846663109279 0.86863049339674 0.81891412114296 0.79337603614524 1.1938833140897 0.76701409357416 0.79447261004381 0.75686591514888 0.8058761552579 0.78207360696804 0.81456529526505 0.75756157459972 0.80888327443662 0.7464507328866 0.75332924744428 0.89149433269969 0.80893744444598 0.79678787780696 0.89649131804379 0.77497001507134 0.8304774362718 0.92849780170961 0.8468357503923 0.88197770864607 0.67792881716091 0.7467588866175 0.66845525344469 0.75214854283984 0.78417492222879 0.7549393636401 0.78898609286583 0.66347367273815 0.73792566492368 0.72088012941962 0.75637579199285 1.0025995514594 1.0708246843442 0.64856925266736 1.111093973232 0.72574722111863 0.58861160617591 0.64424722058647 0.99564892948846 0.65688931084452 0.81918030707513 1.0422040582184 1.5002396651873 0.78299896293358 0.71496266309141 0.72323920301997 0.77031770483376 1.4331766671278 0.62421902242761 1.5158335705411 1.1563685617339 1.7031133456653 1.3704688008654 0.89618698510423 1.045973447282 1.539403346368 1.4204691146471 1.422864831991 1.2664105934596 0.87600281905791 1.2243807134153 1.1054476837624 1.2714300767344 0.54881814057302 1.2566416439354 1.1207185698545 1.1706592408265 0.86500617982666 0.99465816969046 0.7722258512872 0.852544950004 0.98988227939398 1.1637194331061 0.96758030454672 0.4731010024192 1.4921906173323 1.2725285156396 1.1645174265106 0.84122488947149 1.3116611775441 0.24807115702894 1.0488417929531 1.400636998362 1.2931690120538 1.0212164594276 1.2216265422883 0.76775509640059 1.3547898096862 0.64154960276918 1.0164918522222 0.7335230970829 0.63520214402659 1.4739973513946 0.97942165578286 1.6718847868265 1.5570828078715 1.4733983386231 1.158204650497 1.3694730388846 1.3738636719174 1.1356895450355 1.2592705883553 1.2133206468425 0.91025717147594 1.5654296459275 0.90162774363547 1.4652631625599 1.260788871691 1.3653645210611 1.3903888629483 1.3215784382677 1.2855284614593 1.1088928372857 1.1649323947896 1.3700814825692 1.2869858251336 1.2437083926196 1.272937123003 1.1600392730367 1.2899836101738 0.98363126255985 1.1836489599019 1.2536775492915 1.1260458415914 1.3107426427896 1.164874609036 1.0618818553725 1.1645015936793 0.97112804000493 1.1463728163816 1.0850132035143 1.077186015749 1.3293594602782 1.2652986579853 1.3762387700497 1.3914421896434 1.1451526345226 1.2380468565218 1.3707609812611 1.7743480117536 0.98210234788383 1.3643898471164 1.0262539958299 1.0461836588028 1.237409839463 1.3322195373937 1.5432412753414 1.4613276960251 1.1316019561479 1.1631620552301 1.0358383505653 1.1381616988366 1.0161745276903 1.3885922184106 1.330749832438 1.450562817605 0.99686101319952 1.3591492120285 1.0262843879909 0.97582661923186 1.0718536633862 0.9580776032867 0.9593353815819 0.99235529901335 1.0615203454768 1.1955590015244 0.75982966733205 0.92215101130239 1.0236671834246 0.96198305307076 1.1583399655762 1.1037135828901 1.122448307325 1.0689099843101 1.2828474529626 0.72429956244056 0.9246296470651 1.0555184667156 1.033915419221 1.1372576373411 0.91474217500831 0.98126057739834 0.62216119740936 0.77215688683099 1.0125067181036 0.8207969063557 0.3003917123661 0.83914347347823 1.3297957891567 0.69980171235126 1.1956202696821 0.5895259068728 0.6276964323773 0.79216957269082 0.71613601076853 1.0603641325884 0.60534675263382 0.6906036372647 0.63003780312511 0.63252989535406 0.72905140271279 0.75343476064157 0.77736286226735 0.78790876210986 0.68855852839147 1.1026721436045 1.3122438925115 1.2151183093308 1.1456004485383 0.83419060386135 0.63875663382621 0.98936152432073 1.0006046109427 0.94203537702632 0.83630025150884 0.30074438066075 1.2880501917629 1.2530099369684 1.1847300255935 0.42431383545476 0.84902559784659 0.59949330332364 0.55820598963848 0.79260256649123 0.80836317270641 1.0400736375382 1.0242556048916 0.51825540696021 1.4276655801423 1.2886637251881 1.3514071988871 1.1235208569116 1.0225245978 1.4632479633847 1.2125916373107 1.2704148543529 1.2228109197846 1.1080125384738 1.2115412608081 1.0655105545705 1.348444179359 1.0978913988845 0.96210596722344 1.1315732633904 1.0056411739752 1.24371362124 1.0447613154261 1.308124293976 0.9114632563543 0.96842608173049 1.015789790929 0.80865536818645 0.9753301795741 1.0029286966789 0.94001853894716 1.2072672707933 1.02417417