# vtk DataFile Version 3.0
d-2__ created by libgimli-v1.5.0-1-g5991b6ac
ASCII
DATASET UNSTRUCTURED_GRID
POINTS 5237 double
51.5625	-1.600651465798	0
52.363058618394	-2.2007793057832	0
52.363058618394	-1.2002556799702	0
71.425394217268	-6.4492914291386	0
71.135097904744	-5.4771271911802	0
70.857211012989	-6.0895310876045	0
52.36462373976	-7.3812071130104	0
52.062146671723	-6.562044385894	0
51.579239484435	-6.9995115253068	0
52.978608245119	-2.5223992616451	0
52.426078464355	-2.9431742375399	0
53.125	-3.2013029315961	0
58.212085682206	-9.1100319221725	0
58.453260354822	-8.3442770860191	0
57.67084439445	-8.1643577797761	0
63.928817694237	-5.8320133661214	0
63.136568684966	-5.3881026026313	0
62.763781324443	-6.2161997240281	0
73.23666673551	-8.8137981813336	0
72.465325161432	-9.3856020353627	0
73.536499380951	-9.8365705673558	0
34.984095856152	-2.628843419918	0
35.619136094519	-2.5090501132551	0
35.380029414153	-1.8597528656397	0
53.321148630175	-11.162616580636	0
54.027575466965	-10.581569113398	0
53.114509273726	-10.527115815206	0
76.943180869818	-2.9998432215406	0
76.323125752567	-2.5886266629824	0
76.569248516704	-3.6430710208123	0
51.762203973554	-2.6049547878523	0
52.713475367973	-6.5806932207651	0
53.163617236788	-1.600651465798	0
55.987476949302	-0.99080140091504	0
55.102793289422	-0.76710012556177	0
55.106970838159	-1.6393923168386	0
53.596292205608	-2.16693697809	0
50.985999511328	-0.80032573289902	0
50.694945464071	-1.6177802013362	0
51.5625	0	0
51.953125	-0.60656716833924	0
52.34375	0	0
51.141033728919	-2.2327563841605	0
53.163617236788	-0.79985989414244	0
53.856712638952	-0.69868682303251	0
53.125	0	0
54.6875	0	0
53.90625	0	0
54.345635852319	-1.2002556799702	0
54.27340867437	-1.9180427530569	0
50	0	0
50.061543575147	-0.9317159149912	0
50.78125	0	0
26.835711480797	-5.0945728207933	0
26.730759507059	-5.840020163328	0
27.652791899251	-5.7989062126192	0
50.800784553772	-4.441346771854	0
51.530120250591	-4.5184826244551	0
51.200767107424	-3.8631910820893	0
50.524574742154	-2.6202884258794	0
49.013345914832	-3.0309080337401	0
49.307829314199	-2.3683039790327	0
48.457760708485	-2.387246226841	0
49.990868918556	-2.1249492899538	0
51.150445706534	-2.9924285898874	0
52.406542536007	-4.5731399715169	0
52.067234067036	-3.7632182402079	0
52.451757838435	-8.0675828340887	0
53.06848754724	-7.8770210901599	0
48.895608461697	-3.6984004848738	0
49.066411935567	-4.38252714814	0
49.595903323883	-3.7808033008045	0
49.689570829885	-2.9847762176767	0
44.897973912051	-1.9946180437754	0
45.182046705136	-2.7949873194544	0
45.762828029322	-2.1753250060135	0
50.373551971126	-3.5866505254035	0
52.828771262488	-3.9202157613411	0
53.812795204979	-3.2326334333091	0
53.849159978958	-3.9201808480695	0
53.338980160241	-4.3451358512942	0
50.125262346554	-4.2466167218164	0
48.366249439027	-3.2325870638619	0
54.140475802653	-2.6271012126648	0
54.777278080618	-2.8548682726708	0
55.343969328911	-2.4857395634732	0
54.900639642445	-3.5198321062056	0
56.08245822117	-2.506515700293	0
56.722434969274	-2.3362664933289	0
56.582649783275	-1.6825215295472	0
55.838086387121	-1.8910179851795	0
47.856418863637	-3.6536845491278	0
50.296065820424	-4.9307433850826	0
49.648878212346	-5.8674099255378	0
50.435444238179	-5.7189662551714	0
55.726447146829	-3.2617900974963	0
57.03125	0	0
56.25	0	0
56.640625	-0.6336799182968	0
55.46875	0	0
47.265625	-0.60584322854327	0
48.319897427419	-0.94328166326908	0
47.65625	0	0
49.649019377522	-4.7289038921194	0
47.800117245319	-2.7436775267687	0
47.056439225426	-2.6631716329468	0
47.205202788673	-3.5389329417022	0
51.025062137871	-5.1776046674784	0
51.794314349774	-5.2026477919161	0
49.379793031142	-1.4900458490219	0
47.883963066822	-4.3143596769856	0
46.626719423074	-4.21305864466	0
46.952796904766	-4.8924187428279	0
48.916367075115	-5.2980660748545	0
48.273036419341	-1.6763193094756	0
47.557375323169	-1.5108824929603	0
47.025995274484	-1.9649058382431	0
40.527819720887	-1.3223996832032	0
41.015625	-0.82403177846155	0
40.234375	-0.68977439554083	0
51.769495715842	-7.9525942359046	0
50.954578848664	-7.8238654176422	0
48.815091053827	-7.8610976914158	0
49.519719147422	-7.882560495899	0
48.604749109458	-7.1882547166448	0
48.451929269365	-4.7518861316538	0
52.107745992154	-5.9120462692989	0
46.467098649604	-3.0446751673047	0
46.438305114222	-2.3432208256986	0
51.000018184443	-6.7905718889417	0
50.272808590028	-7.0153310124781	0
49.192260967628	-0.56566742220875	0
48.4375	0	0
51.389658682796	-5.8053763020697	0
42.171965596079	-2.9039472483478	0
42.169617438148	-1.7439442245713	0
41.762109405592	-2.3247730189075	0
52.98883050875	-4.9231952591911	0
53.664668615825	-4.923752505126	0
49.446075714958	-6.7363461484348	0
50.229139509117	-6.3514683816516	0
37.057737056071	-2.4312750743487	0
36.175296485211	-2.0974136957924	0
36.655257764787	-3.1134808628881	0
41.278857503526	-1.8052612441822	0
41.921261232985	-0.93098632976564	0
56.54470739826	-2.9807316098375	0
58.264619513046	-3.8212235845847	0
58.623591609595	-2.8021267032936	0
57.932380891675	-3.1314225292069	0
57.8125	0	0
57.421875	-0.67803467169774	0
58.459974830411	-0.82455858423025	0
46.66496660318	-1.0043948544666	0
45.913013343028	-0.95437338010054	0
46.258427518177	-1.6241680508448	0
52.805617877792	-5.5737262648744	0
53.54011987911	-5.6518178126013	0
54.483335233213	-4.555508101085	0
54.398072603917	-5.4600916162612	0
40.409708468817	-2.0096945914784	0
39.537349141833	-2.083451253784	0
40.051705231956	-2.9712071561975	0
48.727652221115	-6.2411820497976	0
57.390693584019	-2.3550494567383	0
58.32003360384	-1.8635662684895	0
57.867197124921	-1.2736469069641	0
45.831333347402	-3.342449816249	0
44.61506405203	-3.2361945502218	0
44.055886966074	-2.7851356450373	0
56.25	-6.4026058631922	0
56.344780651894	-5.4620420041128	0
55.523790851891	-5.526078566835	0
48.198120477162	-5.4382641396351	0
53.962744229814	-6.2576066685227	0
48.017179035192	-6.0256413890745	0
46.875	0	0
38.684902226582	-3.5197009273439	0
37.930326727021	-3.4059024410912	0
38.125130282498	-4.672818676649	0
39.83410727092	-1.2598096731	0
43.793178101462	-2.1376751283086	0
44.29945251799	-1.6561076009174	0
45.188007055776	-1.1600472403668	0
47.138279888227	-6.7174299668152	0
46.769324679213	-6.1896262271948	0
46.478312721951	-6.9805216135928	0
38.281249989819	-1.3530583402081	0
37.890625	-0.67658234670659	0
37.001158771528	-1.6412160793694	0
42.843566474064	-1.2258959253192	0
36.994649495774	-0.74281914745416	0
37.5	0	0
36.71875	0	0
51.478775116139	-6.4033447122592	0
50.874003587203	-6.1878502224229	0
38.671875	-0.67658235846486	0
39.062391602638	-1.3480152085892	0
39.453125	-0.67670849675911	0
43.566403293466	-1.4767710091457	0
42.961180220794	-2.0537985524414	0
38.67677651106	-2.1181382110967	0
47.408095284532	-6.107914247678	0
47.466340503591	-5.4438982430401	0
42.981513538054	-3.4138062754082	0
42.797698824199	-4.1721324139625	0
43.562853255231	-3.9342777104335	0
33.131027730577	-1.9060307218362	0
33.45325549361	-1.1958382722805	0
32.674234900428	-1.2323206251903	0
46.09375	0	0
45.3125	0	0
47.069201971012	-7.4245382446059	0
47.303019886221	-8.12570160346	0
47.807734803795	-7.4540361796791	0
39.543224548136	-3.6813428585742	0
39.139550962369	-2.9068152878816	0
35.883792327864	-1.2000898370657	0
43.75	0	0
44.140625	-0.98708518081357	0
44.53125	0	0
44.734080692487	-0.65110212790979	0
36.531404340464	-1.1953976069147	0
50.232557883072	-7.7409785744023	0
46.199241877243	-4.8958080707053	0
46.372419673969	-5.682505777373	0
37.776623955221	-2.098715389389	0
38.393764780465	-2.8143121923333	0
46.589399566827	-7.8205252091053	0
47.841265187184	-6.6145438909033	0
36.359506978579	-0.55607798840762	0
34.590619981607	-2.1161999991892	0
34.859158868299	-0.93979611528619	0
35.36347127428	-3.1520076702127	0
38.969132947754	-4.3701058148959	0
45.668747034131	-4.2896240620188	0
36.877523640108	-4.5029805616432	0
36.265143961898	-3.6203018552164	0
35.871994594297	-4.1247717475031	0
39.147357932817	-6.9561478540192	0
38.662196896052	-6.5202528694241	0
38.508708038615	-7.1541509999095	0
28.198890094922	-3.4357484105484	0
28.292468646665	-4.1652634425071	0
28.914300993265	-3.6064422116412	0
46.023751565297	-6.3642777006514	0
53.118490041902	-7.2334614095555	0
53.822732118246	-7.5403592627582	0
54.176164224496	-6.9299188452306	0
37.327493989825	-5.8648519091252	0
37.451410660447	-4.954577667292	0
36.440298168002	-5.6490489174889	0
35.48553558024	-0.62095145491213	0
35.9375	0	0
35.15625	0	0
45.440905237557	-7.2699750906872	0
32.871098604815	-4.926668758802	0
31.929060319533	-5.1896146113999	0
32.564888129225	-5.9327832657158	0
38.799593289471	-5.2253580921145	0
50.878551773724	-10.603484528326	0
51.260392525507	-9.623421428755	0
50.628556495766	-9.553368865277	0
47.812940340263	-9.6267347640909	0
48.46943359941	-9.1361334144282	0
47.729881664959	-8.8113978153061	0
43.178127736715	-10.857711659452	0
43.858571724934	-11.045980509413	0
43.736793403067	-10.162343819068	0
41.278185907903	-4.2923381212812	0
41.599055790442	-3.5269050666836	0
40.648727460544	-3.9358072031464	0
33.965296706316	-3.0034890475984	0
36.006460541913	-3.0353752053758	0
34.643429740706	-3.275014522267	0
44.327449394856	-4.7158145297629	0
43.429267310626	-4.6904930112993	0
35.120444104135	-3.8983530163242	0
35.133140356735	-5.2167285505669	0
39.592149813967	-6.456909318237	0
40.7486841056	-4.7852479242829	0
44.4939720133	-6.9911681180693	0
45.166868164121	-6.4532339671136	0
48.4626472101	-8.4716259375097	0
46.698861518086	-8.9775179648668	0
47.044702357292	-9.6645505292414	0
39.862533418693	-5.5361015869983	0
39.918853594387	-4.5780712067792	0
39.433535148011	-5.0302112167234	0
49.235950692388	-8.6163260277736	0
49.994476810311	-8.4075809194054	0
50.460653251572	-8.9402354126601	0
50.174208577183	-10.811151869418	0
50.330424019382	-10.114832271613	0
55.104277417596	-6.3631485770321	0
46.061683108504	-7.491084223905	0
45.050832502689	-7.8686902248342	0
51.376396820735	-8.6779450942677	0
41.074001578548	-2.8841272534668	0
40.594752597556	-3.3021557691186	0
[...]
CELL_DATA 10184
SCALARS Coverage double 1
LOOKUP_TABLE default
0.9531977975707 0.22786788585356 0.13296301002937 0.64615651054466 -0.029113827098978 0.2299657416211 0.051263433459183 0.74051099826426 -0.12859158331835 0.60925963698166 0.85621157224109 0.12281765036103 0.92772675387554 1.0014437515761 0.84417848730932 1.0357949193921 1.1662890033208 0.82760638526536 1.3305998568311 1.4167175971617 1.2153600394848 0.97100244377271 1.5717097586795 0.97826796971959 1.0221955268385 0.93447126930885 0.90888457872467 1.6474971236565 1.0898889967093 1.3364951700109 1.2716648788007 1.0117902609828 1.4464789858343 1.058867938919 0.93077945167374 0.74556155635286 0.26850822885157 1.4825048860364 0.38790942083606 1.2011607855507 0.80864601847243 0.69565482071172 0.92105660742379 0.6899407332323 0.3942806675513 0.79317630307928 0.045396590321014 0.70730453495115 0.4295089882746 0.68159782906085 0.58341016954239 0.7352070239316 0.80232169106952 0.49950514594219 0.57981002812736 0.49759919264823 0.60297979533721 0.48525955431427 0.58613141469785 0.48385888869266 0.71718206267558 0.84562033501309 0.41714237839873 0.92057978654588 0.44487488810025 0.52912641111038 0.40270301127158 0.60953216451395 0.83436298811336 0.75517864537393 0.86546163425211 0.56933458779681 0.79717659862134 0.87827341377873 1.2181833122778 0.48370815914437 0.62890606037822 0.41625090664892 0.42565614437199 0.2871513006772 0.57544639229355 1.5152094571173 0.93464626395679 1.3788639307706 0.48363989919782 1.1870039264341 0.38589671949055 0.61298697446756 0.65561120146221 0.3496236624221 0.33225806530392 0.54347881576469 0.52360041438272 0.71170825977985 0.92943068099849 0.37666386283744 0.29195608010625 0.89718401205435 0.61421890068238 0.81830134311735 0.82254842528059 0.38140164151411 0.35558840951313 1.1185698024141 0.080531001528046 0.33371479448363 0.34117275021877 0.06925468949974 0.39039849330754 0.2040536868068 0.75955431075792 0.34341945551213 0.41799668551705 0.097195411488793 0.29458320977507 1.4713939695188 1.1626519363457 0.27930337875866 0.53445931271693 0.78492464543062 0.36419020396856 0.19243507908148 0.098619867644191 0.74219114820006 0.92625106917463 0.70538521916045 0.95604348353496 0.56126406689821 1.1066791475713 1.2477079877314 1.2095439545659 1.0654496283959 1.2075028330024 0.685869463807 0.31066886251456 1.0616845241445 0.45828257954524 0.32574909375899 0.37769418121318 0.33588424470852 0.72087503325447 0.79750055435946 0.25485225145637 0.75763576039263 0.86262765135196 0.64559000262602 1.0110605479275 0.92810632100428 0.63181826117947 0.23190513447585 1.3295779868441 1.2971145409732 0.25317275338694 0.22341448278353 0.25545289590066 1.1242974642977 1.0508287983506 1.2484963877337 0.98726969732153 1.4605954398416 1.3747624453638 1.0037486135006 0.44184620368248 0.47753715508849 0.99949654821468 0.85646499562157 0.8654649475343 0.1952257319336 0.99466973822208 0.68317822335721 0.97933853320374 1.4711438124578 0.17623729079206 1.1440664837719 0.85425683966926 0.38555575093174 0.94327776312031 0.77739303747552 0.92521537859421 0.7138464578126 1.4455470130247 0.97018973471404 0.8285680040456 0.85110171463986 1.0067781346059 0.26638952130237 0.97568027676287 0.21828004022087 0.79227899282382 0.43843206899554 1.0248118808645 0.87370762684418 1.595572611616 0.063143269099857 0.5190883374569 0.89184054493174 1.2451721251248 1.0383543829488 1.0502015664565 0.091586873932024 0.308836550507 0.15935733251817 1.6259273204922 1.2168293680435 1.0280469328254 1.2095423056267 1.0580359674822 0.87788984111178 0.79612505634229 0.79575753327123 0.078638201064758 0.096559264794484 0.93586990138891 0.21970012089193 0.13954434375064 1.2820580033311 0.13525476638589 0.54056460229197 0.92933599629817 0.64899020510272 0.39918698566583 0.20970653332889 0.94039521863812 0.42627185794653 0.20766466065617 0.39996202685954 0.14264508735768 0.47406089888936 0.2061288219102 0.17850337932411 0.088389868829667 0.28578274941464 1.5266716213418 0.15924888737602 0.72768637572553 0.28386050375872 0.34681828988639 1.0562893098028 1.502418003698 0.58503724696926 0.47987888113037 -0.094912372971964 0.21238075971307 1.0056745595639 -0.054476190383577 -0.13354385153152 0.85474374475799 0.4351032086497 0.67349705527242 0.31541198953494 0.2317659822542 0.1357738389942 0.2607664137754 0.70399923246981 0.61568935248752 0.58822126293941 0.36841119583313 0.45324191047114 0.36564385322892 0.1546917874723 0.37772199614746 0.1600101446974 0.035114588027297 -0.058258887376356 1.1797991344079 0.32823867476447 0.28107403378914 0.69165481094743 0.0070769677282503 0.24344781961061 0.055582359406531 -0.064609304549835 0.13468420988024 0.18668557461841 -0.11768487465457 0.27347813082111 0.31370199433887 0.045548334203522 0.24180325997539 0.39951711987622 0.10390444217072 0.07369471640066 0.26411812002779 -0.052979303560625 0.61311117455081 0.51935024596213 0.96146713229919 0.6142860990202 0.51390755982926 0.24533840124179 0.66063809585657 0.30796981351326 0.2709315823639 0.38710126097082 0.41398580464732 0.68529613360468 0.096666854815089 0.69335106472604 0.44647156426787 0.61412086792767 0.039595157639153 0.34486737209103 0.45923960529373 0.55780333459519 0.35488756442212 0.15251827380081 1.2303268097083 1.3317621838296 0.78559760761638 0.35230052661198 1.2308789024696 0.96345870555177 1.2997979250032 0.15359974569262 0.27429301049882 1.0157182388354 0.13698685414063 0.035347991352776 0.61242257639429 0.71091166075387 0.4429802423808 0.24027118147251 0.77362607535053 0.78928263512105 0.21157050563282 1.0834882724307 1.2828659031304 0.39733520222349 0.38538061431985 0.36800990355396 0.32214545605126 0.23080623078053 0.66255993545287 0.51018775658015 0.4945117381096 0.42377443911846 0.63264440859109 1.2387597609944 0.54774177587949 0.33485671997503 0.22087183090948 0.46500516197208 1.1149143332526 0.99932197770999 1.040948411546 1.0778400395351 0.8877661736577 1.4055574784426 0.55317313977768 0.44248678779502 0.80333974973279 1.4078919740415 0.33536714380564 0.97505455641335 1.2526833174133 0.58798219034695 0.70960344038551 0.93068424489209 0.1552979635694 0.91317475821505 0.96572353261713 1.4238092827195 1.3007567415924 0.85773645890263 0.21785038508648 0.41576668450008 1.0946902167712 1.0569059104844 0.76522712986421 0.15525905545576 0.33578499362277 1.2455811546032 1.5280066898569 1.0631643848834 1.5366289773737 1.4119976568159 -0.15948466753159 1.2914409008633 1.6021227788704 0.84732100492689 0.99214358231078 0.092387823653104 0.17774995137092 0.28963198082579 0.22650057456805 0.95885714560755 0.84581771233844 0.87294844065607 1.1875104100662 1.2070673340313 1.2003054767333 0.72267614456978 0.59199474628339 0.45700530463539 0.50375317412715 1.4246863981927 0.90740719557649 0.90090992454486 0.874601560385 0.69296168909008 1.2995785071258 1.1188205041238 0.15203528751367 0.31519712892257 0.34080523880262 0.047911012555317 0.58297287954286 1.0578796559687 0.30164561137194 1.134867000384 0.23472357266724 0.29778018930714 0.49731460520954 -0.2088993837176 0.1183484162838 -0.1683333097213 -0.077370101589192 0.29304006872985 0.46353353943544 0.31788319137319 0.37130104764918 0.34794129640036 0.3401633170008 0.54264791175664 0.56357978462129 -0.14482402580786 0.2009719599543 0.30874963903642 0.2444046268748 0.39619455537458 0.43583437581572 0.91971440925021 0.34736354641733 0.28600936172814 0.79753168580689 0.35954521517932 0.28658767877084 0.40893431237461 0.42879467454581 0.70783674229991 0.5773607432561 0.3577710055267 0.31395063709631 0.24527472927852 0.31276582397028 -0.040675080068086 0.36541140159182 0.28757529413136 0.41431012060443 0.28967915078581 0.1752766996957 0.23231373082541 0.28340252959513 0.31034178883665 0.4659778611724 0.61150023440006 0.23369220605306 0.39797317759556 0.52456933938757 0.3651006216203 0.23314778800111 0.30465918934754 0.59485714730294 0.54254209533 0.21532220788863 -0.16014422112484 0.31448546347243 0.38676839688427 0.41390278026852 0.53279733813245 0.28525315991893 0.32133813908134 0.31266476054365 0.37810772690999 0.24734070755288 0.3381325446191 0.14019418628926 0.0089550607513136 0.78849298997269 0.66051291028769 0.48707760999602 0.3940183559568 0.41788823278214 0.36830274288113 -0.10613916990535 0.48651305342068 0.41639341583984 0.53784276609958 0.032866392071919 -0.057145410181822 1.0306526177893 0.92066507026502 1.2312150480319 0.87643494829681 0.78234972374041 0.53061286210055 0.39636331017446 -0.11632966509316 1.2439652689757 1.32488221027 1.2239774309773 0.44018187844812 0.55716627350629 0.53629303104079 0.50651294068675 0.37253507513074 0.29775471444452 0.37300458791541 0.35403975948865 0.34465537038544 0.36317675861856 0.2195955377062 0.24265979032059 0.086493236112226 0.025670723934748 -0.028156289667297 -0.075824557429629 0.014052045529789 -0.0013452459440194 -0.045531912092608 -0.024603559564331 -0.070748135968926 -0.11185508294605 -0.045358126040323 -0.070494156861346 -0.031886736887059 -0.092151424290612 -0.096775220831886 -0.14612399748698 -0.0053359589708153 -0.031844180861108 -0.085988092927197 -0.08892405230374 0.021922911866256 -0.0097021677132277 -0.11008833675194 -0.10130559681957 -0.13928236386064 -0.14711913997154 -0.16401806636853 -0.15366452432921 -0.12060862896538 -0.1104485633388 -0.10223638274041 -0.1257809510044 -0.15258277995828 -0.17546165633931 -0.14214079120177 -0.1253341393863 -0.15282407435964 -0.16516216414465 -0.13792819004241 -0.15984896570608 -0.13397275995612 -0.14687179008517 -0.16456674442859 -0.17998669153379 -0.060580874563625 -0.15999279855211 -0.15684710325103 -0.16868283035552 -0.19045030931938 -0.16356200166281 -0.17134067756758 -0.1667836963628 -0.16324534497164 -0.17469887495409 -0.16164353266731 -0.14638646667183 -0.18220223016513 -0.29256462231917 -0.15522696523363 -0.16920946204059 -0.15016322619799 -0.1414089607158 -0.14146144057634 -0.12539449426626 -0.022176667551777 -0.13321181058544 -0.16421534256324 -0.1740392257148 -0.16916909645083 -0.17263717045755 -0.16211154574722 -0.15657616653266 -0.10904682530124 -0.12382663770059 -0.16013157766492 -0.16554698183357 -0.15492390438308 -0.15591547874036 -0.15920419995372 -0.13890827023491 -0.16460698328093 -0.14923523954098 -0.1455394242387 -0.14111838598662 -0.14003957268309 -0.13251916933775 -0.16239309760363 -0.16706959741262 -0.14629864522486 -0.12645294059935 -0.11625120522346 -0.00034094824619705 -0.14066265043303 -0.15285380131433 -0.090310819091981 -0.090443671320209 -0.14449713989133 -0.16144490189483 -0.1728272822767 -0.17477460303661 -0.15064892340404 -0.16961022412401 -0.1729513246313 -0.16673920008173 -0.2009377717132 -0.17931321516342 -0.16591164668112 -0.15608264482706 -0.1822132288578 -0.14906631873059 -0.15126073609796 -0.15285627976943 -0.17307000320866 -0.15631874210394 -0.19486203629815 -0.16746959766021 -0.19254923434792 -0.18663169839974 0.096793587944473 -0.18065362573051 -0.11530175859507 -0.14521887388226 -0.15325941968342 -0.17003875403657 -0.10507944715478 0.0036865016423009 -0.17399868324057 -0.18849520284034 -0.15242309946875 -0.14358458483108 -0.16336071464428 -0.17863757408438 -0.1388451361953 -0.13318822342496 -0.14359409881481 -0.12268585402829 -0.10855199293573 -0.12898265610263 -0.19801388006655 -0.17691764639414 -0.16410533998313 -0.17363943729052 -0.15482959619188 -0.18249142098162 -0.1667377918177 -0.17542960182374 -0.18676898211279 -0.17836615264949 0.041193097555509 0.1084079908425 -0.1983470783023 -0.18133301296265 -0.099008629923215 -0.080072916771232 0.0073541179165543 0.059790388686051 -0.039943844305964 -0.072131030925918 -0.59604591097908 -0.19105886727911 -0.20823829805922 -0.18204350626313 -0.18829338311287 -0.25785586339052 -0.20519950660287 -0.20332692686419 -0.20612004712427 -0.20156210635139 0.025924313687346 -0.20245927324944 -0.22002558172841 0.15663649736813 -0.16863425346534 -0.16053827271873 -0.26960030731513 -0.18713863855839 -0.19729558974612 -0.24185412126282 -0.093689499748831 -0.042274470851427 -0.21386242001856 -0.15311160950646 -0.16099818697757 -0.1924695930434 -0.16048169296154 -0.14219789172062 -0.18405239826851 -0.15576321648813 -0.13758177975301 -0.054826528997295 -0.16883492558595 -0.069604976295879 -0.14914782464091 -0.11982572106672 -0.15129739560115 -0.13916020280929 -0.099349560545263 -0.10127938493529 -0.12940258885699 -0.055562302600243 -0.13409804233481 -0.054335299253041 -0.18892679137757 -0.22522596093471 -0.20105231467722 -0.51580612997643 -0.079998911408156 -0.1179918591779 -0.0057384994726362 -0.057855523854809 -0.041993432596563 -0.18413746674309 0.14335566849833 -0.050305419357245 -0.020644156547938 -0.012874351076745 -0.042171277837251 0.076624891808466 0.0011739153037857 -0.09342023195374 0.13975628731814 -0.22655079055681 -0.10869114668658 0.028176363747215 -0.15167655053352 -0.12474759370296 -0.12857556583103 -0.014859311354999 -0.20778222318606 -0.23635485568465 -0.15182533575604 -0.13323305127624 -0.15654808987202 -0.15680603944233 -0.15908680866486 -0.16441645296565 -0.11304356833832 -0.15587845520514 -0.13508075869014 -0.1595898011537 0.066274279149973 0.14687236593246 -0.28199372462174 -0.18574337915105 -0.20807310527307 -0.30226707212556 -0.14275432818271 -0.10877099819474 -0.15699507015577 -0.12849171848248 -0.096319755145556 -0.042928658325156 -0.14797083595719 -0.14648637712677 -0.14957428456909 -0.15604714164301 -0.17726242757513 -0.16486270207887 -0.19055664909282 -0.15792829377163 -0.16530920174937 -0.10368705420765 -0.18107348714631 -0.20871441954124 -0.17571810485428 -0.17622743733232 -0.16498224124724 0.093449543984039 0.16757872363731 -0.24174295847415 -0.12311322927603 -0.14616692691315 -0.067544184152798 -0.11467859940362 0.047292096623789 0.046482087186544 0.20812978219177 0.068465232081045 0.11094344660929 -0.020056593664033 -0.18950804443189 -0.21024877477704 -0.48816879188569 -0.71091315558962 -0.22864924491162 0.040532708070355 -0.34379576359781 -0.1546747287969 -0.27384547339053 -0.17937396135725 0.11090439835462 0.024642783697268 0.16703906208223 0.017323678773735 -0.45119170129547 -0.24894258883307 0.19277719905915 -0.26636802544495 -0.19535863387664 -0.260155419094 0.20645539409157 0.1001878238236 -0.27746357271097 -0.14617905469847 -0.22158332495182 0.059972006791642 -0.19908458724122 -0.16509272108513 -0.18188231069766 -0.14915937330077 -0.22639631491533 -0.20086119681158 -0.23892779839023 0.11506117636381 -0.25271010817207 0.12597879004968 -0.23704232068912 -0.20165188783055 -0.12025450044628 -0.14655395690238 -0.14078365272124 0.053825407566926 -0.077999790748545 -0.069654587362555 -0.10420256384753 -0.12236779796258 -0.085619672985015 -0.10741995743588 0.092746689923156 0.13009727706171 0.15173734446757 0.14165043418895 0.23926621377494 0.14501462249486 0.2416779453305 0.15208389640744 -0.092669076838038 -0.040364912750392 -0.019450691290578 -0.089752622376608 -0.23068999019882 -0.19068968301484 -0.19598921322174 0.23015923404972 -0.21163078150163 -0.23984642121338 -0.17681708000348 -0.1879624266385 -0.18783822185503 -0.18842412201205 -0.21875298840526 -0.19467948775337 -0.18992879744396 -0.33143949834916 -0.21051973715272 -0.20625267182095 -0.21049733652968 -0.2039369999509 -0.20463290027107 -0.13406513386219 -0.17066099577624 -0.16613472813975 -0.18745594502125 -0.13709945681316 -0.1559917526125 -0.22446211613315 -0.26108395802196 -0.2215645042609 -0.25875909315789 -0.31152515141236 -0.17763523830567 0.15409669175941 -0.23001068605075 0.093498075501111 -0.096649495366479 -0.11990256359554 0.23714959345542 0.28645083652726 0.041619275604028 0.09364213552954 -0.19241002758276 0.19330193128363 -0.21454722832999 -0.21481916893776 -0.23311135180978 -0.1876548045942 -0.17818583553864 -0.20041502637707 -0.14004995376604 -0.1555977366322 -0.13192477068477 -0.14558491788491 -0.12853368666172 -0.10444102500584 -0.14599541776198 0.048577235081615 -0.090011879181374 0.0083740609216615 -0.14350497198861 -0.16444062798562 -0.22738447779621 -0.16109199223427 -0.16968416529035 0.21762439649215 -0.12942173066043 -0.08894668953954 -0.16174847854446 -0.1593569901609 0.21305747655496 -0.34016148420127 -0.073130579405455 0.2050797921904 -0.12351177763689 -0.13879390757337 -0.13018644697008 0.15055350396001 -0.075640856863362 -0.052067418445859 -0.13886886279976 -0.11520529682743 -0.071879863690764 -0.12638607957714 -0.1145131288492 -0.15724330889302 -0.14954002715953 -0.19026996758536 -0.17372336986571 -0.30823843594072 -0.3590141236528 -0.21724896344068 -0.23035862374217 -0.23969979891037 -0.23046345813621 -0.27978046018027 -0.20226787586155 0.28845276601022 0.2045154041705 0.086690553041486 -0.027401414848879 -0.18193554096481 -0.17866641383605 -0.086236760433485 -0.011429225511065 -0.035723997787291 -0.015689285745916 -0.097600098007132 0.10677647563295 -0.060838315477283 -0.032090324089428 0.088604316056301 -0.043204048870456 0.076797467834737 -0.0065974208068071 0.012340066545501 -0.0047662947915872 -0.079382893924962 -0.044709113124754 -0.17446264278476 -0.18975901286901 -0.17347783737807 -0.1846893714786 -0.21545429635307 -0.19471210534686 -0.19549322199907 -0.20264604760782 -0.23049887440104 -0.20591534680349 -0.21362162373236 -0.19648405138349 -0.21592732914846 -0.21951301728499 -0.23002615988667 -0.22751948553239 -0.34735542661959 -0.25873464731767 -0.21608864991442 -0.2055770764966 0.153995330732 0.10348543761327 0.12286765385819 0.047444946608276 0.094691557775402 0.046559776982812 0.044803093037333 0.040719674512308 0.16411818959355 0.036473426631372 0.16373581402335 0.014553600386294 0.16227223979746 0.085636440936493 -0.13373561846518 -0.060320224648878 0.033437300188509 -0.01538538126412 -0.024032320904361 0.013345445969949 0.023560041515547 0.0011823458477452 -0.14959639471579 -0.12842168217866 -0.17413778169373 -0.16457387120438 0.092288434033803 0.024495050587126 -0.14071491133182 -0.089461320125683 -0.15475295248807 -0.11971809932862 -0.058994742601795 -0.0078862487009603 -0.1587724224061 -0.057278545580179 -0.092778568403308 -0.059017874499963 -0.16485838050121 -0.14004861484279 -0.11047475503939 -0.04075328588506 0.2196097658372 0.22680022354557 0.56798802755689 0.25628084893974 -0.015385642693627 -0.036226012685224 -0.19659907640995 -0.17650266947721 -0.18018683706353 -0.1093565597516 0.066733654863273 0.25560937755102 -0.016098716041412 0.035273555939356 -0.21144131401248 -0.1628822110543 -0.0033741575584943 0.03013281019643 0.11647220100117 0.043194544295369 -0.21432346755942 -0.050864485203939 0.031653354716853 0.035278737723706 -0.018727065800888 0.060954384617685 -0.22693762622267 -0.21679221989802 -0.26902087007152 -0.2564463403439 -0.25387879706152 -0.19530427335017 -0.23293480902063 -0.23044658013118 -0.24918802013062 -0.23459264409437 -0.38715030517374 -0.2465134266018 0.21745244982931 0.12741492256531 0.21342429609237 0.16160576541114 0.23382346439188 0.24026155391527 0.23517648315811 0.10470447125217 0.05323302742141 0.0442817135414 -0.0503304287053 -0.11390344390142 0.16415402337031 0.077155524496925 -0.040874393220138 -0.074116063763972 0.068191367031494 0.19781267864024 0.12939260501449 0.092353566748607 0.22441381294006 0.12626218140349 0.0044846019319717 0.51275839898976 -0.32460369234907 -0.27748955068912 -0.20115733189194 -0.27513137303797 -0.29038858084419 -0.2401710403242 0.041464110247363 -0.028105043152317 -0.017864650247937 -0.042358647944309 -0.079726320588826 -0.083834606435159 -0.065062841650327 -0.021415829491344 0.14083972115543 0.21783666062446 0.065198793836116 0.33955973144361 -0.34039537845999 -0.23975393866818 -0.2784791522697 -0.20092515791828 0.069979022463278 0.10283927262718 -0.091254372359164 -0.11716368522533 0.15076186185744 0.22900126514013 0.14454327839008 0.14179822112543 0.29679483098432 0.32548620470689 0.14023024296169 0.35852471941375 0.27786003268386 0.19339948492036 -0.32583341083659 -0.2528998691065 -0.26247623060569 -0.24035010347844 -0.30356149182855 -0.24365098679642 -0.2296110666199 -0.22072272189638 -0.23017769567499 -0.20314496434566 -0.21273469830877 -0.22873445529123 -0.203855845870