# vtk DataFile Version 3.0
d-2__ created by libgimli-v1.5.0-1-g5991b6ac
ASCII
DATASET UNSTRUCTURED_GRID
POINTS 3056 double
16.047984885364	9.2005108665658	0
16.227640130622	9.31797770521	0
16.052808675398	9.4151062914457	0
9.6856707273838	12.779965388042	0
9.5840448320983	13.008863982168	0
9.459889155087	12.888340064957	0
9.4017034496321	12.989518397958	0
9.4966291044861	13.057428275285	0
9.409213376874	13.105992568403	0
6.9615730037337	14.465792775704	0
6.8666473488796	14.397882898376	0
6.9945996683525	14.319328169198	0
10.283370652996	12.620349637225	0
9.9337077425469	12.814606809696	0
10.035333637832	12.585708215571	0
10.370786380608	12.571785344107	0
10.246630703596	12.451261426896	0
3.2	14.888006064741	0
3.3935321886838	14.815842352641	0
3.3	15	0
10.363276453366	12.455311173661	0
3.05	14.894536113346	0
2.95	14.834347813918	0
3.0997032337695	14.698789777549	0
22.54986393823	5.4610590293129	0
22.601478319067	5.6563101371606	0
22.484832569298	5.6522603903955	0
7.8357302798552	13.980149844525	0
7.7483145522431	14.028714137643	0
7.7115746028439	13.859625927314	0
8.7098875559768	13.494506913346	0
8.6224718283646	13.543071206464	0
8.5857318789655	13.373982996136	0
21.698091020789	6.0893390284563	0
21.734830970188	6.2584272387846	0
21.639905315334	6.1905173614571	0
4.9002967662305	14.698789777549	0
5.05	14.834347813918	0
4.95	14.894536113346	0
8.5275461735105	13.475161329137	0
8.5350561007525	13.591635499582	0
23.708017310135	5.0679061559452	0
23.57570494199	5.2584272387846	0
23.492391392804	5.1534065041647	0
7.9373561751407	13.751251250399	0
5	15	0
4.9	15	0
25.208739718026	4.888006064741	0
25.308739718026	5	0
25.108739718026	5	0
6.7500015991102	14.393833151611	0
6.8150329680421	14.202631790528	0
7.6608988246309	14.077278430761	0
7.653388897389	13.960804260315	0
12.90584248136	11.163420843689	0
12.869102531961	10.99433263336	0
12.993258208972	11.114856550571	0
14.304494123155	10.386392153803	0
14.40612001844	10.157493559677	0
14.654157033603	10.192134981332	0
11.237433729487	11.969668242483	0
11.18581934865	11.774417134635	0
11.36538604896	11.891113513304	0
11.120787979718	11.965618495718	0
11.885664010266	11.385614544848	0
12.082360983452	11.431411271421	0
12.024175277997	11.532589604422	0
13.080673936584	11.066292257453	0
12.98574828173	10.998382380126	0
13.867415485094	10.629213619392	0
13.77248983024	10.561303742065	0
13.830675535695	10.460125409064	0
10.909490913954	12.100065284392	0
10.844762499738	11.765076855645	0
12.934133900893	10.803131272278	0
3.6	14.810067208388	0
3.7	15	0
3.5	15	0
12.657805466197	11.128779422035	0
12.556179570912	11.35767801616	0
11.244943656729	12.086142412928	0
11.157527929117	12.134706706046	0
1.3	15	0
1.2	14.888006064741	0
1.4	14.810067208388	0
1.9	15	0
1.5	15	0
1.7	14.849260526121	0
12.119100932851	11.60049948175	0
2	15	0
2.05	14.894536113346	0
2.1	15	0
12.031685205239	11.649063774867	0
1.0997032337695	14.698789777549	0
1.05	14.894536113346	0
0.95	14.834347813918	0
11.332359384341	12.03757811981	0
5.7	14.849260526121	0
5.5	15	0
5.503868896942	14.598288840263	0
4.064468339761	12.492321883392	0
3.9817116885018	12.918420923089	0
3.7670358212135	12.67328000924	0
13.779999757482	10.67777791251	0
25.602637769837	4.524993056905	0
25.708739718026	4.8492605261212	0
25.458739718026	4.8343478139176	0
14.734062833973	10.027096517768	0
14.682448453136	9.8318454099206	0
14.862015153446	9.9485417885899	0
-0.24940646753892	14.834347813918	0
0.05	14.834347813918	0
0	15	0
15.804771660235	9.3804648697915	0
15.703145764949	9.6093634639172	0
15.578990087938	9.4888395467067	0
29.767533861964	4.3398980943704	0
29.508442951795	4.548348532907	0
29.495546029131	4.1485808085627	0
0.1	15	0
0.3	14.849260526121	0
27.458739718026	4.8945361133462	0
27.358739718026	4.8343478139176	0
27.508442951795	4.6987897775495	0
0.5	15	0
16.678928936356	8.8948219386129	0
16.4287009421	8.6628888321103	0
17.028591846805	8.7005647661415	0
1.1	15	0
1.95	14.834347813918	0
20.105956534257	6.4151422964054	0
20.247470662652	6.669867727517	0
19.925330046586	6.7203171073957	0
21.501394047603	6.0435423018831	0
24.087916739041	4.9470663132613	0
23.750549209437	4.5440302871062	0
2.3	15	0
2.2	14.888006064741	0
2.4	14.810067208388	0
26.308739718026	5	0
26.358739718026	4.8343478139176	0
26.408739718026	5	0
25.008739718026	4.8100672083876	0
24.908739718026	5	0
3	15	0
2.9	15	0
1	15	0
21.472583787351	6.4041201181382	0
21.297752332127	6.5012487043739	0
21.301387084399	6.2885606170178	0
19.199774869435	7.6667917392027	0
19.112359141823	7.7153560323205	0
19.104849214581	7.5988818618751	0
6.1791038580454	14.704649136022	0
6.0874157276122	14.951435706882	0
5.95	14.834347813918	0
6.8741572761215	14.514357068821	0
6.7867415485094	14.562921361939	0
16.402471585846	9.2208491189743	0
16.260666795241	9.171513098704	0
16.394961658604	9.1043749485289	0
6	15	0
28.922845333402	4.5823118347521	0
28.708739718026	4.8492605261212	0
28.602637769837	4.524993056905	0
4	15	0
3.95	14.894536113346	0
4.05	14.834347813918	0
28.108739718026	5	0
28.208739718026	4.888006064741	0
28.308739718026	5	0
7.136404458958	14.368664189468	0
7.1315806689246	14.154068764588	0
7.3112359141823	14.271535603232	0
23.945942620228	5.1435706882137	0
23.403806383266	4.93902940218	0
3.9	15	0
4.1	15	0
27.608739718026	4.888006064741	0
27.80227190671	4.8158423526409	0
27.708739718026	5	0
17.36404458958	8.6866418946778	0
17.356534662338	8.5701677242324	0
17.451460317192	8.6380776015599	0
5.3	14.849260526121	0
5.1	15	0
14.617417084204	10.023046771003	0
5.9	15	0
6.5387045333462	14.528279940285	0
14.998996154018	9.7832823839802	0
15.178651399276	9.9007492226244	0
15.003819944052	9.9978778088601	0
4.3	14.849260526121	0
27.508739718026	5	0
16.453147364059	9.0031966155281	0
16.256450390874	8.9573998889549	0
22.871235429146	5.6270914282524	0
22.72943063854	5.5777554079822	0
22.866411639112	5.4124960033725	0
21.122920876903	6.5983772906097	0
20.948089421678	6.6955058768454	0
20.981116086297	6.5490412703394	0
1.8827233936571	13.413209492963	0
1.635985724768	13.057931042977	0
2.0585343714792	13.116469985366	0
13.63397856251	10.414328682491	0
24.321832839145	4.8833962425865	0
24.408739718026	5	0
24.316180298466	5.0287141376427	0
24.708739718026	4.8492605261212	0
24.508739718026	5	0
24.458739718026	4.8343478139176	0
23.483145522431	5.2871413764274	0
9.2631921819019	12.842543338384	0
25.358739718026	4.8945361133462	0
25.408739718026	5	0
25.508739718026	5	0
12.206516660463	11.551935188632	0
3.1	15	0
12.308142555748	11.323036594506	0
24.679068235604	4.239790780138	0
25.006267059794	4.3425605622482	0
24.599747236054	4.5734506034563	0
22.521572518697	5.8213486007239	0
22.608988246309	5.772784307606	0
11.502367049532	11.725854108695	0
11.68202229479	11.843320947339	0
11.507190839566	11.940449533575	0
10.491228772839	12.376756444483	0
10.633033563444	12.426092464753	0
10.45820210822	12.523221050989	0
22.696403973921	5.7242200144881	0
23.395729794819	5.3357056695452	0
23.358989845419	5.1666174592169	0
2.8061019481889	14.524993056905	0
2.7	14.849260526121	0
26.108739718026	4.8492605261212	0
25.908739718026	5	0
0.9	15	0
26.458739718026	4.8945361133462	0
27.308739718026	5	0
27.408739718026	5	0
29.358739718026	4.8343478139176	0
29.408739718026	5	0
29.308739718026	5	0
26.508739718026	5	0
27.108739718026	4.8492605261212	0
27.214841666215	4.524993056905	0
28.408739718026	5	0
28.358739718026	4.8945361133462	0
28.458739718026	4.8343478139176	0
28.508739718026	5	0
21.923872593085	5.9809643515411	0
21.8222466978	6.2098629456668	0
26.708739718026	5	0
26.608739718026	4.888006064741	0
26.808739718026	4.8100672083876	0
28.908739718026	5	0
29.108739718026	4.8492605261212	0
14.056457107991	10.351750732149	0
13.954831212706	10.580649326274	0
29.658146185565	4.8343478139176	0
19.54461398985	7.2579391418513	0
19.724269235108	7.3754059804955	0
19.549437779884	7.4725345667312	0
21.647415242576	6.3069915319025	0
13.250681601775	10.754568246337	0
13.430336847033	10.872035084982	0
13.255505391809	10.969163671217	0
9.2674085862685	13.056656548133	0
16.489887313458	9.1722848258564	0
16.577303041071	9.1237205327386	0
17.626291772416	8.5409490153242	0
17.484486981811	8.491612995054	0
17.621467982383	8.3263535904443	0
21.284504402929	5.7190625713937	0
21.673644598829	5.7490312450385	0
17.276628861968	8.7352061877956	0
16.926965951519	8.9294633602671	0
17.239888912569	8.5661179774673	0
18.11404618869	8.0804750462887	0
17.902749122926	8.2149218349628	0
17.83802070871	7.8799334062158	0
18.238201865702	8.2009989634992	0
18.150786138089	8.249563256617	0
8.5612854570062	13.033675212718	0
9.0547266763919	13.085654315995	0
8.8115134512622	13.265608319221	0
14.741572761215	10.143570688214	0
9.2343819216497	13.203121154639	0
9.0595504664254	13.300249740875	0
9.4354427331278	12.548032281539	0
9.6630878033521	12.327490919146	0
15.615730037337	9.657927757035	0
15.520804382483	9.5900178797075	0
9.9706052236163	12.250719786823	0
14.828988488828	10.095006395096	0
15.528314309725	9.7064920501529	0
19.986516417945	7.2297131011419	0
19.949776468545	7.0606248908135	0
20.073932145557	7.181148808024	0
20.175558040842	6.9522502138984	0
25.309036484257	4.6987897775495	0
20.860673694066	6.7440701699633	0
20.853163766824	6.6275959995179	0
22.273535503534	5.7867071790697	0
22.208807089318	5.4517187503226	0
3.1317176073544	14.309812537406	0
20.736518017055	6.6235462527528	0
19.891590763091	7.1618032238144	0
19.899100690332	7.2782773942597	0
28.008739718026	4.8100672083876	0
27.908739718026	5	0
18.23069193846	8.0845247930538	0
28.309036484257	4.6987897775495	0
27.895939159663	4.4709363375124	0
28.265207298324	4.2898533340251	0
18.988203464812	7.59483211511	0
23.147692779655	5.301064247891	0
23.04606688437	5.5299628420167	0
19.024943414211	7.7639203254384	0
20.773257966454	6.7926344630811	0
20.423595056005	6.9868916355526	0
20.525220951291	6.7579930414269	0
18.325617593314	8.1524346703813	0
22.171909608248	6.0156057731953	0
18.358644257932	8.0059700638753	0
18.500449048538	8.0553060841456	0
13.113700601203	10.919827650947	0
18.179077557622	7.889273685206	0
[...]
CELL_DATA 5825
SCALARS Coverage double 1
LOOKUP_TABLE default
2.28773970434 2.3169495514973 2.8810138557514 2.3524297135343 2.3160327172385 2.8639436927485 2.1429474878381 2.318234011834 1.8562770273385 1.9115438743628 2.7869140121142 2.8273318548795 2.288148388269 1.8788373972043 2.862725222479 2.3324280000775 2.2602554308807 2.7902594994717 2.4182666849496 2.4312698278519 2.215586455096 1.9226277451773 2.8230710733552 2.8976248938442 2.3522761038768 2.2237847405542 2.026439370176 2.0329272527069 2.926981609057 2.4455432829498 2.1125955846444 2.3715472530195 2.04011217933 2.1068410608265 2.3375827171195 2.8738288106226 2.0522205333326 2.1192022343542 2.4230850092754 2.7437184886459 2.9083031862657 1.6205268871198 2.9052018687085 2.3654254346005 2.0201145600349 0.79535951682333 2.9414612400622 1.9448152157901 2.2757528828413 1.240108622653 2.3654372508414 0.78664671728098 2.025353996335 1.6737924005051 1.6864335936643 1.680695439894 2.1332460285189 2.2186141372025 2.731052374196 1.7550412939666 1.9241101443815 1.9466089201789 2.1025042463664 2.6751981948656 2.0889827787051 2.7757555893124 2.1412323861369 2.7542463817569 2.1789063297339 1.9562007272199 2.8891695634792 2.0393966792246 2.8027754882757 2.4622020392162 2.4407932225858 1.6053034010611 2.2419200906547 2.2093444860822 2.1420952957367 2.1933866074706 2.2506745455119 2.1057664849193 2.8114190709136 2.7699860188707 1.9842611710854 2.9133698719908 2.196528377826 2.0486257351995 2.4944981431967 2.2864803920569 2.2817955116747 2.2375703901764 2.1570692365968 2.0275616215929 2.1778892154966 2.3843632398951 2.3482264571073 0.75873481749066 2.0482049727511 2.8245662690219 2.2591790154417 2.8794961745085 2.010725188893 2.7136909418008 2.6973831586502 2.8819178836134 2.091493546959 2.7965412560655 2.348947360255 1.495307144833 2.801352295315 2.2653015308164 2.8481940635406 2.4137914062746 2.8358576250169 2.8456458830774 2.0049174282609 2.3399225856076 1.941396048425 2.0878116763439 2.1935036461719 2.7283391395781 2.1672777385729 2.6600578052146 2.1245054308655 2.7115223281794 2.1308468323954 2.2570403271275 2.7197000121453 2.2416045530652 1.8199622670582 2.2177021306909 2.6881711906445 2.2724162511477 2.0374478514283 1.8404714055998 2.3737674226427 1.5533120190553 2.7034239587155 2.068707777418 2.8198412369793 2.2113654865799 2.7561983844548 2.845323231548 2.2816474119709 2.4369856070217 2.891992243639 2.3598104102766 2.2825547491932 1.6960464127205 2.3313737913627 2.8813325441717 2.9125629059629 2.0661748181583 2.8702332866324 2.0701807564069 2.9055831990445 2.45714210336 2.2505823238559 1.8998807896318 2.4059739870051 2.1129510886819 2.9423634363262 2.3243727103379 2.891239977447 2.9209107166391 2.8177268434989 2.2934574408807 2.4272821069065 2.8174983631043 2.8464278993544 2.3173255622931 1.7812155969474 2.8922834863896 2.8567493058264 2.3055802129977 1.978069004975 1.6069085158195 2.3836135637083 2.8793104501156 2.1123980420275 1.9464966610475 2.3429103698515 2.4250029268211 1.4063567293685 2.1686379737556 2.4111946368955 2.2197863742513 2.8561361029994 2.3254298017246 2.2597447708699 2.9047477429507 2.9235356055475 2.4038059827699 2.2228272889319 2.4114006222745 2.8208478670717 2.2366573902311 2.0099601507159 2.2982479052135 2.276597003357 2.0145900931834 2.2895831917857 2.3928301503709 2.2423960811449 2.4131027135983 2.4444675126757 1.7776806437481 2.2385473200843 2.28260444904 2.2905548883185 2.285017189116 2.1426999741814 1.747912278407 2.1921446053989 2.3374946861029 2.389981800783 2.0170285464833 2.4179878183208 2.442966888154 2.4791994761697 2.4345879208715 2.46417152421 2.2531597175174 2.3702668769079 1.9992369448134 2.3900244682882 1.9996166002493 2.1550532393718 2.3290415959389 1.8956777316109 1.7818016335695 2.209866876524 1.9598026055301 1.9851917739277 2.2359351075291 1.9054021039588 2.0339239279198 1.5350549697704 2.0869460499864 1.5004080538348 2.0346022346297 1.9193587561073 2.3328724446003 2.2046868278629 1.7435075949193 1.9367587443233 2.2020402109179 1.9686856755894 2.4254688099637 1.8362526550572 1.9973154645328 2.2222308285598 2.1854682662705 2.3137452082386 1.9691133503159 2.0489920246455 2.0638044537211 2.3147000131477 2.2301343865728 2.2361578815444 1.9683981696487 2.1973681492302 2.2074644457293 2.3856575986108 2.3445004197486 1.8758203005516 2.4035112998697 2.1667310672809 1.8938011483102 1.9188682951613 2.3297258974012 1.5015417851147 2.0654086277259 2.1855297932658 1.4752195142887 2.2624784651722 1.477343508881 1.8479509956663 2.1790640345818 1.5857884592222 2.0055659557782 2.4347673933985 1.8550557402118 1.9529067965653 2.1827736644536 2.0811847302231 2.3155103657529 1.9552336416631 2.1742596561247 2.3533247533009 2.2532127677982 2.2801262701849 2.2744338961969 2.4569283050337 2.4229258754275 2.1270854026504 2.2100619966826 2.3048177176102 2.2773717810421 2.4615585644489 2.4280166692062 2.2999263008602 2.2882849889934 2.4781062711079 2.4450695765129 1.7447456099542 2.3695831337088 2.0569180430924 2.4040616465374 1.7985661844844 1.7317991043295 2.0577775668432 2.1899174448247 2.2802402476683 1.8636775020936 2.2219723189556 2.0979988016514 2.1366354160802 1.9069398562741 2.3141791196711 1.9135811513621 2.2522651980941 1.9987872435814 2.3631418320915 1.9785497828908 1.9733599735664 1.7743254840806 2.2118106162544 1.8545571666201 2.2400208376868 2.2469248150123 2.3429814326326 2.1296910259007 2.1889917541104 2.1203070320383 1.864752651316 2.0726033985978 2.4449981744668 2.0884288438205 2.4508962853439 2.1126948730195 2.4358862200673 1.9463538718666 1.7908975577289 1.7704883753214 2.0262941386486 1.8009918281933 2.1215270495543 1.9624840588529 1.8963928094315 2.1340603736232 2.1134769388911 1.9595608523737 2.2076373845345 2.227895035783 2.2273118230032 2.0379297376197 2.429266578845 1.8874952752274 2.2085504759484 2.256104110834 1.9279984308905 1.833682433721 2.1182137333302 1.9631946734709 1.9989268240349 1.5768344165072 1.9996816534325 2.3052807930637 2.1269413520833 2.2358092321965 2.1097011526729 2.0304199757412 1.843338339737 2.3315586688476 2.3268089333772 0.68225398947315 2.2321196797745 1.0074231158616 2.3536982389262 2.283606534435 2.0823459203722 1.8773545545105 2.2700152723374 1.9819497871154 2.0877589843636 1.8035824663156 2.1432560941039 2.0123782286629 2.0166302112675 2.2418566048053 2.2617095632036 1.9068504777953 2.2762693955985 1.8924815935981 2.0248238135927 2.1488332913923 2.1532878611796 1.952254899019 2.3035889651339 2.2382314424859 2.2511813713894 2.1954612066336 2.2769007405634 1.92336834881 2.3508373497195 2.2161924532451 2.0471597401304 1.1741780686717 2.1095516212501 1.7356289754109 1.6958475719451 2.1301131989401 2.1055478912907 1.817225819325 2.0887059067735 2.0832067985653 2.0379361709366 1.7414204204344 2.1158658074056 1.9999745591211 1.7719871165895 1.4591182389723 1.7990768419887 1.8194722792911 1.7679695408285 1.9468878511228 2.3465555194711 2.2334910640617 2.1168883724445 1.9524171270515 2.3692153067887 2.1891830782644 2.0974880562399 1.8527746576542 1.70627673798 2.2439526273015 2.1214087795373 2.0358539490275 1.9665373147162 1.8267804013261 2.3736572790824 2.2098650242369 2.1216781384864 1.8950814962612 2.2762187109207 2.1419505856252 2.0739162541887 1.1623579128137 1.2266701213974 1.5176773611166 1.2988571275553 2.2220262466865 2.1082309910133 1.9283976287387 2.1991521254283 2.0471142992668 2.1604330517043 1.9678697840381 2.0371713737596 1.9654486393619 2.1970585515756 2.1211409513343 1.9413553682068 2.2321959611923 1.9870638459081 2.184845590807 2.2942989872734 2.1851552184322 2.0034083122508 2.2521927044404 2.0876377574991 2.2072876990074 2.0458464613697 2.0058603611045 2.0276025161582 2.296278604018 2.2126015940376 2.0332797766067 2.2456892605198 2.094039098333 2.2033076584827 2.3099798594329 2.1972318271683 2.0138965223068 2.2668806679447 2.09096882775 2.2121412610932 2.2415740670879 2.023137592848 2.1877713312281 1.9822506512189 1.8496726167084 1.6134479476744 2.0882129855065 2.114942068321 2.0311713946432 2.0592334685925 2.0322539412335 1.8538453985158 2.0556531975703 1.9515648978102 1.7076397156172 2.1027643459092 2.0762967804679 1.8505029626119 1.9455203464101 1.9458517340844 1.8475623496199 1.8874026894654 1.9004934980394 1.7174818055641 1.9732764439868 1.9561085055158 1.7410972480489 2.238860197951 2.1151732463068 2.1940343457963 2.1350645321074 2.0050517984064 2.0971003725845 2.1990854229498 2.1763017551369 1.9480472569709 2.2147521115088 2.1818173425143 1.957149485216 2.2375403335724 2.1758109124615 1.9296206425685 2.1796057204513 2.2260319137951 2.1281297766118 2.1683162016857 2.1679644389012 1.9870598910436 1.8150736867255 1.9405009302198 1.9841291573132 1.8471651383749 1.7096511728525 1.5074173800372 1.8438805701144 1.596463651951 1.4977424361993 0.71721200947636 1.961760802514 1.9091052569959 1.6723061113643 1.4015324940414 1.6049655590175 1.6909237767858 1.7898491133202 1.9306251403738 1.5847996890247 1.7021130056195 2.0782736661943 1.5112797821983 1.966882892984 1.3852557082775 1.0931064872266 1.7348308304108 1.6438254690686 0.59081334131216 1.7674859943699 1.7150941186314 1.7948578989325 1.628704963152 1.7489506361788 1.6563041299769 1.605906244071 1.6502152046629 1.6755008468497 1.1163615627407 1.7378437672234 1.8683717270422 1.3998832093116 1.7842622009888 1.7883236360389 1.7860431936892 1.5673141222248 1.7886687803854 1.9124877602034 1.8248376745438 1.5118621128218 1.8180490499249 2.0289129473435 1.7697779376373 1.7993562277784 2.0193531260847 1.9451640782495 1.6789066229141 1.4640475996308 1.7067158901226 1.474675184235 1.3977192631683 1.5749129005684 1.7851116781288 1.4504329590214 1.5542001412324 1.436530026838 1.5257311103132 1.4071873547994 1.3241229240617 1.015242066735 1.2337440246486 1.3830317948147 1.2075778328743 1.5466485172725 1.518766413558 1.7682103551633 1.3968874798763 1.7263765379389 1.7103726892452 1.4996536233564 1.7074566034042 0.58400977417463 1.0476756484108 1.3698130825955 1.1375412375146 1.1815007243207 1.5486288667952 1.5007281576987 1.2218224991391 0.5704323053177 0.91028375734206 0.44450665914627 0.56978199535608 1.72030568676 1.7552150626063 1.6288107328284 1.5299602032112 1.6381446738394 1.5995528727276 1.2811283594026 1.049144667675 1.4546876370163 1.8486305681819 1.241113840132 1.8838760359709 1.2845660808259 1.2617922661984 1.7794316467672 1.5346208995777 1.4149065536781 1.4937034122537 1.3839896149531 1.52557130354 1.7007727702752 1.4302330814853 1.3826159917587 1.3670208623981 1.7544144506016 1.5232037813845 1.4708107236692 0.94259236908213 1.7810600948593 1.5816148350454 1.5806571453354 1.4449573148531 1.7681884464838 1.5351636782432 1.3113664403171 1.4117024370028 1.3750775888712 1.5414335368253 1.278618933434 1.2774330940128 1.5148794022652 1.0819184011949 0.88616101855439 0.99924908937553 1.7206726056612 1.4546425771195 1.7305775588836 1.5193819361184 1.7504080534974 1.3906695021805 1.7041602617689 1.3367778602015 1.478037311245 1.2933406244098 1.1838005045908 1.5360431888849 0.95517042640375 0.52007369721665 0.93451384599686 1.0331704844172 1.3573409365572 0.95361971571005 0.62479676888143 1.2651196151594 1.2017485580196 0.12414978610394 1.486481684555 1.2202068543447 1.3467491242165 1.2325923911626 1.4846132489834 1.3351621008005 1.5417362507829 1.4626031579686 1.3563882989763 1.1971276145499 1.5271798960797 1.3672577993407 1.585450366157 1.3848165315508 1.416018968942 1.4532905452289 1.5819327759295 1.4113355231292 0.89046011022662 1.4218712957511 1.3654006853902 1.3991769683158 1.0617637272183 1.3888929560494 0.80775347001681 1.0157990308447 1.0931455938371 0.60388968555638 1.3613459791912 1.1575720568372 0.95165115818996 0.8727663917645 1.4622140758639 1.4114341413047 1.3419042326501 1.3103817601861 1.4801251801826 1.179210167908 1.5292703057354 1.3244577100409 1.4288962722582 1.257779262098 1.5844210742015 1.3361238745689 1.6053489129566 1.4224222482259 1.3923591562969 1.4624013394877 1.6057232665981 1.4040075577304 1.4044302399825 1.4467256778144 1.2778433837726 1.0593130915836 1.3662680117706 1.3532488271008 1.3830974029223 1.3200700004289 1.3235861691117 1.5929230243025 1.5371470507928 1.336535669935 1.327411008996 1.4063233957255 1.8567276290714 1.5103207679003 1.2888156794155 1.3466582118401 2.0338068277464 1.593658760256 1.4185240593374 1.333949641455 2.0386503905844 1.5792795201482 1.4019717381017 1.2775199457716 0.91117090679077 0.89702657417948 0.92844298000706 1.2956241165663 0.64678499581321 1.2582038668162 0.89816320147038 1.3119861755682 0.84498442033175 1.9414740191872 1.5537902735275 1.2293703239655 1.245011563575 1.8463291280538 1.5023951746197 2.0364906193855 1.7981528551761 2.0244510853861 1.8068331232595 0.72524672710382 1.1677442658612 1.3296538793834 1.156643357281 1.0522453731789 1.197832654072 1.2848116425392 1.4750123610381 1.2119960956746 1.2993131895631 0.87544905158315 1.0900152706304 1.9775769352886 1.7165141999254 1.4970941729365 1.2618064322679 1.1370762597901 1.2930524507739 1.0022216093907 0.28983651850219 0.71612511616221 0.59524204862849 0.85557984370581 0.55328795177723 1.731762511951 1.6536911784616 1.3128259454836 1.2692227263964 1.3536744913882 1.2360639335259 1.2578009423856 1.3135547741367 1.1971024458527 1.2129045199038 1.1555975021266 1.2807267259875 1.3186168166636 1.1120659062573 1.2250564895395 1.2010106094407 1.2066679745604 1.1205542167304 1.1224617245242 1.2865807106737 0.86380140668252 1.4242808970575 1.0761910852687 0.97463191021158 0.93490244321183 1.1572347238388 1.1323553417804 1.2635321178419 1.4828720222765 1.4182883924391 1.2464200462003 1.2365014247753 1.2731545899176 1.4195125821738 1.2366773751423 0.90065691431553 1.0646255876903 1.0712929518845 1.2280079841689 1.1106070841611 1.279979130286 1.2170706499508 0.99646660303021 1.0914834482283 0.98111657246712 1.0155022875156 1.1734493884883 1.2816614688865 0.94713397932582 1.3984672278456 1.3664559832525 1.3872874776303 1.1292518866555 1.0575903849261 1.1215120073101 1.1719605310331 1.1244254036517 0.99183097844212 0.92179905297685 0.96519511329914 1.375127917081 1.4147970007706 1.1181210771909 0.98650431757385 0.8828706536602 0.94473789176516 1.0037512708333 0.92562529127464 1.1515075034913 0.94653884722599 0.97258653351718 0.85495954477039 1.0691753506533 1.3420535718402 1.070072455284 1.2639715792675 1.2422179661323 1.6831209720377 0.95283120248006 0.86628227908914 0.58715349678821 0.74588889312324 0.86735777749652 0.87570886760774 0.78371147758283 0.81119198338753 0.89769457482311 0.95339768305516 0.82250592789565 0.87320104363831 0.90395996720967 0.97111143041689 0.89351549062997 1.0152652555159 1.0005006044365 1.079960171021 0.78349900982672 0.78301853983481 0.9608098953153 0.97257451007973 0.86565330567047 0.93983306131782 0.8651461059352 0.86509101593358 1.1005714551691 0.83354513093842 1.1223806202535 1.1705959672341 0.91536763222057 1.0927606678669 0.79984509241874 0.83663092142555 0.88007004894962 0.87624005211917 1.05828817818 1.3796925199319 1.3964813628385 0.86044647500344 0.82590988695298 0.8490881890687 0.96019446011944 0.89244303953508 0.94243137007283 0.83833651629805 0.85974673333989 0.84751644048428 0.88872968730471 0.87484142633774 0.7966318465934 1.3968400546912 0.81728855797432 0.8388379561524 0.82061374713343 0.80185748466772 0.77886230035858 0.74793241555286 0.82038489301971 0.86182853747895 0.81956220353575 0.79018761820552 0.82588033827231 0.82267825364965 0.71698696609168 0.78815737845596 0.81089167173552 0.80710446932833 1.362904289075 0.7558770545948 0.79356009295418 1.0482702980209 0.7986829472497 0.72388416411889 0.78354671720382 0.67991971831137 0.81712520735896 0.84115894396731 0.78328134354753 0.73920733546876 0.78163641339228 1.4488136675321 0.75026786271124 0.77654459041873 0.73015291622964 1.2509676675554 0.82369680624776 0.77932506466323 0.83364711843235 0.81084120015026 0.76671272154175 0.73954433736209 1.1624917303517 0.71590550738545 0.74304765486496 0.70855760793745 0.75256141328161 0.73090829910211 0.76177491327938 0.70913811693602 0.75489287065537 0.70187203474131 0.7057432506646 0.84604925705707 0.75100979988428 0.7461474591725 0.86431971395392 0.72404884891684 0.77597608909336 0.95787843872376 0.79890201792767 0.84617295205326 0.63211544361931 0.69991034775709 0.61945509061157 0.70525960507544 0.73092430369847 0.70587678616664 0.73929878991071 0.61272764961494 0.69172164127504 0.67639562989735 0.69669483388681 0.98665148705746 1.078216432581 0.60252686148511 1.150097651334 0.68180645447671 0.54290205106885 0.59746571312343 0.98149895454482 0.62205802630469 0.78249197691782 1.053529684554 1.4914023982939 0.72694022782725 0.67215447248382 0.67950955105605 0.72161605176096 1.4795518669201 0.58361726785883 1.5197910733544 1.1414489229734 1.7056406252557 1.3855389549149 0.8780477692489 1.0204010677976 1.5170633005069 1.4090339655304 1.4035167998614 1.2509458639568 0.8582919460625 1.2008343704635 1.0982077795487 1.2471791726598 0.52231131297749 1.2345131161675 1.1051003272386 1.154823061789 0.842371408387 0.97726766493997 0.74634120829131 0.83624843470369 0.9857844534997 1.1451915199298 0.96045012550358 0.43734459923005 1.4907389795687 1.2539195280962 1.1711793704488 0.82399021971959 1.3071400457903 0.21369209501713 1.037977216929 1.3973495784687 1.2771458489637 1.0086407825992 1.2167385119175 0.76275197109413 1.3561254188451 0.61553951650963 1.0046025004944 0.72275976462206 0.61485720464211 1.4726913774395 0.96485965017881 1.7026405399646 1.551883238046 1.4707285245719 1.1422969093967 1.3502899862902 1.3561183106126 1.1246283559518 1.2476386576703 1.2045609127225 0.8988124139703 1.5608151121773 0.85136704355964 1.4497368064658 1.2599616749998 1.3795774036072 1.3927157600888 1.3387548721088 1.2859670894535 1.0813522337941 1.1590560218191 1.3688929285379 1.2995176650597 1.2474135903617 1.2760197311051 1.1463900880491 1.3020306755017 0.94037623951513 1.1698871386086 1.2445128232291 1.1186364806746 1.3161107397068 1.14264407076 1.0449594890902 1.1616178214147 0.93102500159038 1.1289871655571 1.0617213202682 1.0512113120382 1.3350407559481 1.2747419536015 1.3872970975622 1.405740752899 1.1214547485575 1.2466769728 1.3750576461307 1.7847010357293 0.9393218775761 1.3682317096766 1.0019804517211 1.0102477371296 1.2395353475404 1.3377538771458 1.5210502973286 1.4467008761089 1.1241523520811 1.155833627291 1.0010269903875 1.132885842528 0.9824737537878 1.3936892904219 1.349571933134 1.4386254040628 0.96289474897582 1.3579476809343 0.98277690628259 0.9337364104246 1.0358960242146 0.90836784961469 0.91677860726035 0.95551727050263 1.0298539072989 1.1713549223215 0.71253410987345 0.88439568085224 1.0007491907104 0.92324840983504 1.1326159067002 1.0820845836702 1.0884294181553 1.0447566552314 1.2621647368839 0.67305231035315 0.88146037245684 1.0319231820056 1.0105484195082 1.1212798086648 0.87552836411573 0.94262296517986 0.57905916788843 0.7170058752093 0.99669602206132 0.7611925480911 0.3143918385538 0.79443911498364 1.3439517032963 0.6570443618136 1.2001608172793 0.56198820844834 0.59343472876184 0.74310741621414 0.66253814434908 1.0520877554142 0.57496183461812 0.65201975949237 0.58545086695587 0.58271440594411 0.67812929026964 0.74580115469349 0.75079087101277 0.78070239548946 0.66495556543786 1.0880120318032 1.3150536613666 1.1895104754634 1.1569127866467 0.83267623175749 0.63678577957709 0.99597087405588 0.98341221918893 0.92812590209655 0.82889626418782 0.28460161276201 1.288808490969 1.2586065107646 1.1755145137274 0.39448670709194 0.84484170460391 0.57534765239134 0.53249492253994 0.78025989700175 0.79318561360333 1.0361938840691 0.99958018217836 0.52920091201247 1.4141591983912 1.2963681154415 1.3579512648812 1.1060673816668 0.99264026767727 1.4471044912379 1.2213903745956 1.2698518224383 1.2238326750588 1.0988409672817 1.2194422689803 1.0502316879197 1.3547153497932 1.073509424706 0.92019765531473 1.1113374228647 0.97873880528363 1.2446654490167 1.0156054851138 1.3104524387264 0.86773364739991 0.92720550750971 0.98120816052889 0.76641906138774 0.92884825445642 0.9753141978483 0.8992992217099 