# vtk DataFile Version 3.0
d-2__ created by libgimli-v1.5.0-1-g5991b6ac
ASCII
DATASET UNSTRUCTURED_GRID
POINTS 3065 double
14.646647106361	10.075660810886	0
14.704832811816	9.9744824778853	0
14.741572761215	10.143570688214	0
7.2181179570912	12.323267801616	0
6.9022853070009	12.159878277929	0
7.188568129403	11.864968865302	0
12.573766225573	8.2541691958959	0
12.179090385116	7.8396649872294	0
12.486344232856	7.7791041952802	0
10.909490913954	12.100065284392	0
11.157527929117	12.134706706046	0
10.807865018668	12.328963878518	0
10.246630703596	12.451261426896	0
10.370786380608	12.571785344107	0
10.283370652996	12.620349637225	0
23.486823884586	4.2589561787297	0
23.872774184789	4.3331786567402	0
23.693453371076	4.6788038393608	0
9.4017034496321	12.989518397958	0
9.459889155087	12.888340064957	0
9.4966291044861	13.057428275285	0
8.6528831969526	9.1661723501876	0
9.0889129509339	9.1546198128334	0
9.0172223973042	9.5848707535605	0
4.95	14.894536113346	0
4.9002967662305	14.698789777549	0
5.05	14.834347813918	0
7.8357302798552	13.980149844525	0
7.7483145522431	14.028714137643	0
7.7115746028439	13.859625927314	0
7.9373561751407	13.751251250399	0
9.2631921819019	12.842543338384	0
9.0547266763919	13.085654315995	0
8.8463136869378	12.696007878209	0
6.9615730037337	14.465792775704	0
6.9945996683525	14.319328169198	0
7.136404458958	14.368664189468	0
21.8222466978	6.2098629456668	0
21.734830970188	6.2584272387846	0
21.698091020789	6.0893390284563	0
9.5840448320983	13.008863982168	0
20.073932145557	7.181148808024	0
19.986516417945	7.2297131011419	0
19.949776468545	7.0606248908135	0
8.1805694002704	13.571297247173	0
8.3602246455282	13.688764085818	0
8.1853931903038	13.785892672053	0
20.765748039212	6.6761602926357	0
20.627236771482	6.5291852330617	0
20.823933744667	6.5749819596349	0
8.5857318789655	13.373982996136	0
8.5275461735105	13.475161329137	0
8.3890349057803	13.328186269563	0
9.2343819216497	13.203121154639	0
9.0595504664254	13.300249740875	0
10.311662072528	12.260060065814	0
10.363276453366	12.455311173661	0
20.948089421678	6.6955058768454	0
21.049715316964	6.4666072827198	0
7.6608988246309	14.077278430761	0
7.653388897389	13.960804260315	0
28.908739718026	5	0
28.508739718026	5	0
28.708739718026	4.8492605261212	0
13.77248983024	10.561303742065	0
13.830675535695	10.460125409064	0
13.867415485094	10.629213619392	0
12.119100932851	11.60049948175	0
12.082360983452	11.431411271421	0
12.206516660463	11.551935188632	0
27.358739718026	4.8945361133462	0
27.309036484257	4.6987897775495	0
27.458739718026	4.8343478139176	0
22.57224829691	5.6036960972777	0
22.798029869207	5.4953214203625	0
22.696403973921	5.7242200144881	0
13.080673936584	11.066292257453	0
12.956518259573	10.945768340243	0
13.18229983187	10.837393663327	0
28.458739718026	4.8343478139176	0
28.408739718026	5	0
12.308142555748	11.323036594506	0
22.547801874951	5.2633883138599	0
13.63397856251	10.414328682491	0
12.024175277997	11.532589604422	0
12.031685205239	11.649063774867	0
15.703145764949	9.6093634639172	0
15.615730037337	9.657927757035	0
15.578990087938	9.4888395467067	0
12.444587677104	9.0315078187863	0
12.75	9.25	0
12.46875	9.40625	0
10.45820210822	12.523221050989	0
14.654157033603	10.192134981332	0
17.902749122926	8.2149218349628	0
18.150786138089	8.249563256617	0
17.801123227641	8.4438204290885	0
11.332359384341	12.03757811981	0
11.244943656729	12.086142412928	0
11.237433729487	11.969668242483	0
17.130607666996	8.4717569577762	0
17.327304640181	8.5175536843494	0
17.269118934726	8.6187320173503	0
12.018062834866	9.3144627641309	0
16.96875	6.90625	0
16.518062834866	6.8144627641309	0
16.944587677104	6.5315078187863	0
12.759821286388	10.899971613669	0
12.551355780878	11.14308259128	0
12.342942791424	10.753436153495	0
16.577303041071	9.1237205327386	0
16.453147364059	9.0031966155281	0
16.678928936356	8.8948219386129	0
21.923872593085	5.9809643515411	0
14.508135838631	9.9286857513121	0
8.7098875559768	13.494506913346	0
8.6224718283646	13.543071206464	0
7.5190940340254	14.02794241049	0
-0.24940646753892	14.834347813918	0
0.05	14.834347813918	0
0	15	0
2.3	15	0
2.2	14.888006064741	0
2.4	14.810067208388	0
11.507190839566	11.940449533575	0
11.36538604896	11.891113513304	0
11.502367049532	11.725854108695	0
0.1	15	0
0.3	14.849260526121	0
0.5	15	0
-0.95957299032574	12.742247653798	0
-0.63660515661073	12.736198774421	0
-0.72105850144488	13.237141247116	0
2.9	15	0
2.7	14.849260526121	0
2.95	14.834347813918	0
1.2	14.888006064741	0
1.3	15	0
1.1	15	0
1.9	15	0
1.95	14.834347813918	0
2	15	0
23.155770102009	4.4707815868157	0
23.398627607885	4.6419549088128	0
22.971047224781	4.718656217856	0
13.779999757482	10.67777791251	0
10.633033563444	12.426092464753	0
10.491228772839	12.376756444483	0
10.628209773411	12.211497039873	0
2.0997032337695	14.698789777549	0
2.05	14.894536113346	0
8.8115134512622	13.265608319221	0
7.6871281808847	13.519318143897	0
3.05	14.894536113346	0
3	15	0
1.05	14.894536113346	0
1	15	0
25.508739718026	5	0
25.458739718026	4.8945361133462	0
25.608739718026	4.888006064741	0
0.95	14.834347813918	0
0.9	15	0
23.708017310135	5.0679061559452	0
23.57570494199	5.2584272387846	0
23.492391392804	5.1534065041647	0
6.5387045333462	14.528279940285	0
6.7500015991102	14.393833151611	0
6.7867415485094	14.562921361939	0
7.4860673694066	14.174407016996	0
7.3112359141823	14.271535603232	0
7.3148706664546	14.058847515876	0
6.0874157276122	14.951435706882	0
6	15	0
5.95	14.834347813918	0
13.954831212706	10.580649326274	0
7.5148776296588	13.813829200741	0
11.889880414633	11.599727754597	0
6.8666473488796	14.397882898376	0
6.8741572761215	14.514357068821	0
1.4	14.810067208388	0
3.95	14.894536113346	0
4.05	14.834347813918	0
4	15	0
3.1	15	0
12.993258208972	11.114856550571	0
12.898332554118	11.046946673243	0
12.90584248136	11.163420843689	0
3.9	15	0
4.1	15	0
2.1	15	0
5.1	15	0
5	15	0
7.1315806689246	14.154068764588	0
5.9	15	0
5.3	14.849260526121	0
4.6070433069999	14.368240644588	0
4.6	14.810067208388	0
5.1938980518111	14.524993056905	0
1.0997032337695	14.698789777549	0
25.708739718026	5	0
4.7	15	0
4.5	15	0
24.408739718026	5	0
24.316180298466	5.0287141376427	0
24.321832839145	4.8833962425865	0
24.708739718026	4.8492605261212	0
24.508739718026	5	0
24.458739718026	4.8343478139176	0
23.483145522431	5.2871413764274	0
11.573663228844	6.6878504141764	0
11.783228215591	6.953244789404	0
11.498511972069	7.1356956560705	0
25.308739718026	5	0
24.908739718026	5	0
25.108739718026	4.8492605261212	0
25.408739718026	5	0
25.358739718026	4.8343478139176	0
15.520804382483	9.5900178797075	0
15.528314309725	9.7064920501529	0
25.921540276389	4.4709363375124	0
26.277022110672	4.3098125374061	0
26.309036484257	4.6987897775495	0
21.069293459246	4.0184782266431	0
21.444587677104	4.0315078187863	0
21.46875	4.40625	0
25.214841666215	4.524993056905	0
25.508442951795	4.6987897775495	0
23.395729794819	5.3357056695452	0
23.358989845419	5.1666174592169	0
29.8125	2.6258505226016	0
30	3	0
29.625	3	0
5.8122409423352	10.291228465074	0
5.9889649985263	10.545789285321	0
5.5715926789368	10.688360310892	0
12.278524372398	8.4033099465931	0
12.266749266227	8.7424709281467	0
11.71080923903	8.5533847165846	0
26.458739718026	4.8343478139176	0
26.358739718026	4.8945361133462	0
23.147692779655	5.301064247891	0
23.04606688437	5.5299628420167	0
11.120787979718	11.965618495718	0
26.408739718026	5	0
26.508739718026	5	0
26.708739718026	4.8492605261212	0
9.409213376874	13.105992568403	0
30.458635160201	3.8690920654536	0
30.669330384347	4.1196162860905	0
30.364109258215	4.2441307961306	0
28.358739718026	4.8945361133462	0
27.408739718026	5	0
27.508739718026	5	0
25.6875	2.4642195584136	0
25.771866335589	2.1927504712561	0
26.053487503597	2.1539862920131	0
25.384151503975	2.7152844425934	0
25.6875	2.76491822766	0
25.5	3	0
9.2674085862685	13.056656548133	0
27.708739718026	4.8492605261212	0
28.308739718026	5	0
15.382293114753	9.4430428201335	0
29.308739718026	5	0
29.358739718026	4.8343478139176	0
29.408739718026	5	0
1.8061019481889	14.524993056905	0
29.658146185565	4.8343478139176	0
1.7	14.849260526121	0
1.5	15	0
30.090078193556	3.9711909286582	0
15.173827609243	9.6861537977444	0
15.3534828545	9.8036206363886	0
15.178651399276	9.9007492226244	0
18.23069193846	8.0845247930538	0
18.238201865702	8.2009989634992	0
18.11404618869	8.0804750462887	0
4.8	14.888006064741	0
4.9	15	0
16.402471585846	9.2208491189743	0
16.394961658604	9.1043749485289	0
16.489887313458	9.1722848258564	0
6.1791038580454	14.704649136022	0
17.36404458958	8.6866418946778	0
17.451460317192	8.6380776015599	0
3.6	14.810067208388	0
3.7	15	0
3.5	15	0
16.922142161486	8.7148679353872	0
16.4287009421	8.6628888321103	0
17.302858218222	8.1772459009316	0
17.553086212478	8.4091790074343	0
14.056457107991	10.351750732149	0
14.828988488828	10.095006395096	0
5.5	15	0
5.7	14.849260526121	0
21.1875	4.5625	0
20.90625	4.71875	0
20.882087677104	4.3440078187863	0
6.8150329680421	14.202631790528	0
6.4739761191302	14.193291511538	0
15.804771660235	9.3804648697915	0
14.930614384113	9.8661078009702	0
4.3	14.849260526121	0
19.199774869435	7.6667917392027	0
19.112359141823	7.7153560323205	0
19.075619192424	7.5462678219922	0
9.9706052236163	12.250719786823	0
10.035333637832	12.585708215571	0
20.860673694066	6.7440701699633	0
20.773257966454	6.7926344630811	0
9.6856707273838	12.779965388042	0
-0.43250979015094	13.369587523725	0
-0.85662454898514	13.581460773951	0
22.514062591455	5.7048744302785	0
22.375551323725	5.5578993707045	0
20.742913400511	4.047377368749	0
21.292928542093	6.286653279494	0
21.472583787351	6.4041201181382	0
21.297752332127	6.5012487043739	0
24.1875	2.7176993931111	0
23.626112873365	2.548251847651	0
24.1875	2.3788043021908	0
21.958672828761	5.41136391053	0
22.167085818215	5.8010103483154	0
21.673644598829	5.7490312450385	0
20.175558040842	6.9522502138984	0
19.891590763091	7.1618032238144	0
19.899100690332	7.2782773942597	0
19.017433486969	7.647446154993	0
18.878922219239	7.500471095419	0
18.325617593314	8.1524346703813	0
6.2866035579579	13.872661794752	0
6.1724083866651	13.36768415665	0
[...]
CELL_DATA 5846
SCALARS Coverage double 1
LOOKUP_TABLE default
2.4183534816251 0.8702869046021 0.77953146109983 2.3133438607788 2.870978308925 1.4026539553985 2.4263244246683 0.68183005997023 1.8968966597171 2.8189138734918 2.2803233796964 1.9770529611918 2.3270154268474 2.8347063342002 2.8663266024733 2.855480818446 2.2174864268163 1.9317073762943 2.0099970995759 2.2337314487713 2.0317932879521 2.27330338507 2.8556650729322 2.0118483416099 2.4557186515078 2.8945739348395 1.6657256299182 2.2458050081475 2.3599208721312 2.6823106701083 2.3472039766149 2.0015729224081 2.0644202681357 2.9125303057784 2.8944868915173 1.0055149744867 2.3609884060028 2.9095996467728 2.9537468126244 2.3105332152448 2.9200080662425 2.024857105187 0.96630428863065 0.97696209473001 2.4358460380927 2.0078036192101 2.3440824799517 2.2604240908433 2.0537635001962 2.8433326263358 2.3976763481726 1.5136497876875 2.0853045071491 2.2793249727995 1.8385925438129 1.8084706933799 2.4190037792032 0.21126641709931 2.1918686792234 2.175392297401 2.7240953526003 1.4194848173885 2.9567700490283 2.2796495213082 1.7817545194037 2.1826588153142 2.0332546178499 2.2597186006916 2.1419117993358 2.7034523585142 2.2837358928616 2.6926953360179 2.3137457814984 2.281143520961 2.1923023840813 2.7589708346252 2.5111323602442 2.9293455712148 1.994298605051 2.4533666717251 2.2739635034723 2.0256579492924 2.2522794027594 2.7726073299152 2.4725782898453 2.937027787178 2.8018415771763 2.7503663401897 2.451426554917 2.2230047438784 2.7772568010756 2.1919808262904 2.5533130584938 2.2241954282434 1.8569641193109 1.9993143706191 1.6321782878813 2.2769344557626 2.8324613585675 2.3963320124783 2.228467788397 2.0670961103767 2.1158606237592 2.8599585162005 2.2489548736048 2.8942526409456 0.5973992017648 2.1271031782015 2.7213953655662 2.9312999589962 1.5434643434612 0.9048315988324 1.7291078411351 2.8546025392723 2.769435234471 0.2476419570747 1.9903666687592 0.61000348836635 2.1970399280613 0.82827395478557 1.7285978629816 2.2050003782955 2.3853387307068 2.190837541394 2.1432430136783 2.8922711672999 0.5170246446132 2.1591747846829 2.7040700701741 0.53081546046025 0.67181846080647 2.3990082829978 2.293766519979 2.1103570217562 2.6955225537634 2.0365050855683 2.8779167373947 2.2705688324833 1.7260839923252 1.550796354536 2.1137958973861 0.51076826431462 2.9112175219133 2.2732934413974 2.13906583757 2.445752225012 2.2996943431591 2.8252113093303 2.9408963441987 2.8995978593321 2.0782140206979 2.7345585112477 2.8943501486926 2.0870867401338 2.1008124194542 2.2249512258737 2.1140741179009 2.418505750257 2.8137579628858 2.1719793622929 2.3697406444641 2.9237608055331 2.3045226008965 2.1612836644034 0.98850115517412 1.9049520508584 2.4044027571576 1.845471712918 2.3513174248661 2.3704264497949 2.8556242344715 2.1915075784155 2.8648696143981 2.1164978731834 2.8677910368078 2.839538477967 2.3243807528815 0.39209965784283 1.8902725625857 0.85663193731998 2.1536995921507 0.63083418269737 1.8044858086339 2.2956588994442 2.8925159209538 2.0633843855515 1.9829187396978 2.9112688346166 2.4146523261433 1.2853853661823 2.3218639934347 2.2720565012354 2.9029351046381 2.0588269906183 2.3646002585028 2.3060503355716 1.6110322829965 2.8711781371458 2.3252990236915 2.3590069344108 0.38110256858711 2.2687206296457 1.9187449128725 2.4332585975645 2.2286628785741 1.6315378592679 1.5059940480741 2.7182882514114 1.5124501413564 2.7152035119218 2.7353187996392 2.8848745734266 2.3400588219818 1.7830953019409 1.9601601071895 2.9371032350951 2.4065021731748 2.4384143232967 2.118151114373 2.4527699825069 2.2847736276217 2.3467152698658 2.1755390549554 2.3684630433107 2.1880209574401 2.4566687589997 2.2865892069849 2.4389002289512 2.1148322127392 1.8368372092639 2.1071730272771 2.2498914284414 2.2765697099997 2.8200311074955 2.8439608954843 2.8575613428053 2.3170553646846 2.1386395772547 1.9437184803398 2.1801632534622 1.9998946236175 1.9684588509296 2.0897772077182 2.2067021486646 2.3884737340983 2.3842753883466 2.4331798685175 2.4253520856961 2.2486895939153 2.3078591490939 2.1222342779161 2.3329138886816 2.0206705005162 2.3054550568229 1.9715797362574 2.0479973579885 2.0662712837804 2.3546803666629 2.4175935106449 2.2609394174774 1.8701891946429 0.6610546188548 1.9266556677213 2.1617687666742 1.7798378101328 1.9661054373365 2.3411261518928 1.765898679039 2.1257614143388 1.8276326073147 2.4631737346619 2.031474065367 2.1214644533188 2.4680368787047 2.4806004859841 1.4229333103186 2.0442802301289 2.3804996233196 1.9134444292605 2.0853325073505 2.4052068451316 1.853396887569 2.1171585165762 2.4857492883959 1.0246615994444 1.9436288737317 2.4722240139988 1.8752396748555 1.8218951883441 2.1709000857337 0.75847777586733 1.8750891565879 2.2117164133238 0.91727775950221 1.9736330618833 2.2388734757458 2.4580898185313 2.1630209125909 1.9964174562118 2.3466690417716 2.0402650334787 2.2786466948834 2.3682840773498 2.3387842968974 0.73951106764784 2.1253308980981 2.3760817251257 2.3577501766774 2.4025231746434 1.9464913662775 2.1773866192178 2.0402109890256 2.2565379498776 1.9306487564451 1.6133936480951 2.2119315567965 2.235000433921 1.9198086036489 2.1622675338113 2.2435577807349 2.0711824045008 2.1651075934007 2.0657610126928 2.0172907188624 2.0305030289744 2.1954612091597 2.2389685186191 2.3462896866044 1.9310051740041 1.5433126881616 2.2451192075978 2.3539216170599 2.1423115961957 2.2599196077328 1.2905384376821 1.5648433209589 2.1514297159642 2.2680141466444 2.2411438932605 2.3481511257893 1.8619195639835 0.87569505203924 1.9022743663252 2.3194817971539 2.0583519775576 1.9577040532268 2.0945675020459 2.4195143911524 1.3497434185459 2.0113137891939 2.2081772538089 2.2079181348315 2.3179204886372 2.0869845466396 2.2178635601269 2.1100966901743 2.4434939260779 1.9986316187437 2.0614363305698 2.1178224759274 2.0464781301 2.2255489985559 2.3295641542939 1.88887200264 2.1916673992443 2.183571799243 1.4335662557491 2.2318046958722 1.4132745511505 2.2243726693385 2.3264553738945 2.1142532931681 2.2343308672797 2.0635057890841 2.1205411683129 1.9152337389471 2.2839059396462 2.1569370520321 2.2400025058065 2.0745666194537 1.9759593202357 2.0804849356146 2.0251370798367 1.5090191350592 2.4138888480332 1.8991919848045 2.4346063560951 0.84054963749987 2.1715674516419 2.2646765621999 1.8931366285818 2.2017594957651 2.255399337431 1.991564013001 1.5552664634142 2.0944051710854 1.8684888044051 2.0941518415664 1.9796498385085 2.0323878900294 2.1932438097747 1.272327252965 2.2308156833197 1.8297175571447 1.8364370847824 1.1664653386536 1.9866278202679 2.3116891548547 2.2134303961343 2.0680387195622 1.8009087718103 2.1447620506966 1.9822182695804 2.2957413387593 1.9668464148344 2.2965783407867 1.9891724879362 2.3117349409945 1.8950688934619 2.1963219847999 1.8025605137812 2.2157514388545 1.9834434627074 2.3171122720084 1.9814659809851 2.3033726776136 1.6253705813994 1.9698803727006 1.6841462986401 2.0198944350983 1.9609886769935 2.2775170316847 1.8511917787063 2.14903945842 1.8669360475721 2.1805645810641 2.2183548073547 2.2555133432421 1.9160969860718 2.0101995573515 1.9524047911638 2.304209017489 2.2662241452863 1.7962804588923 2.2416321932025 1.7036347141808 2.109786183059 1.8367029323229 1.5682804018148 2.1517531951593 1.8199107772553 2.1005126177022 1.8408949377954 2.1337420039268 2.0593220752768 1.9151350351069 1.8711654661826 2.1373772906647 2.0113633984282 2.0302930584563 1.4868115745576 1.8380227320686 1.8095638886396 1.8092142681591 1.7911830738383 1.9573363155139 2.3285710625464 2.1709323656182 1.8344329343667 1.8259204684933 2.2418915598089 2.0484599883196 1.8737182152332 1.9513398310052 2.33830403618 2.2023922571293 2.0723575488033 1.0799560400709 1.1981390668115 1.1494855995578 1.0438023013066 2.220785101518 2.0989898435511 1.9411736801479 2.2861653932701 2.1835701002637 2.0249383578751 2.2560970250149 2.0934811009656 2.2008933224687 2.0352366815536 1.9551990466479 1.5375709780201 2.1137433578949 1.9581102039623 2.0511326358441 2.0371076563275 1.9953204917636 1.8261928921906 1.9893637535358 1.8716873466492 1.9310942095002 2.2429218905566 2.1422332679711 2.1909965584112 2.2548590702124 2.1313786351177 2.1961893061065 2.1482496336621 2.0624252093897 2.0886674296728 2.1825548513115 1.9197886203234 2.1127725885332 2.2715889911993 2.1107007995083 2.2048984825931 1.9174481665413 1.8606054669745 1.8369739360765 1.9609367807731 1.8967493617194 1.8992521679227 2.2352593037744 2.1543081128336 2.0006538133732 2.2362269840416 2.1148590554084 2.1702599077278 2.1240558685576 2.0277105512801 2.0425746693886 2.2164588746911 2.1758378841898 1.6140207353846 2.211243641675 2.0354278838797 2.1517185459525 2.2735697695447 2.1082845709664 2.2032346353762 1.9822164167831 1.8785741857149 1.431246142476 2.2473166619895 2.1218253423207 2.1879806481812 2.1370904270841 2.0422783271028 2.0736144208928 2.0964011687871 2.0827366058733 2.0286883941384 2.0337873521536 2.0061439088372 1.8482481699472 2.1939835706983 2.0473514456286 2.1354866929346 2.2378387539194 2.059342007423 2.1745738770008 2.2211447862747 1.9225266021475 2.1583145279622 1.8643134919619 2.0355868828631 1.7363467387932 1.6343704146854 1.6755485758463 1.2793274056731 1.9314933444214 1.9877291717965 1.9383344514083 1.7810228088683 2.0305903784227 1.6943369837699 2.0618008634079 1.6992012691224 1.3934752886619 1.5686396111014 1.570011105626 1.8225829547513 1.3683109995951 1.5902658858374 1.7110960103571 1.6218602931251 1.7581997848349 1.5288021520863 1.9854124190724 1.3892190592884 1.8253890920126 1.6660578702878 1.8890039795163 1.8752233942482 1.9667378793183 1.8200476374238 1.0037636978065 1.7177466848473 2.0687788272063 1.7319401062947 1.8072870228796 1.6505125316722 1.7650570450202 1.6692047719969 1.9684813946299 1.7497470244208 1.7962235967516 1.2674519401144 1.9740251078008 1.3965039339711 1.6080213943162 1.5561206256418 1.9149336933934 1.9406790885628 1.9035147744336 1.8047844036694 1.8519988546815 1.8154898933308 1.6324160996447 1.9104046719316 1.76564148685 1.9734893234683 1.8329012760723 1.8466498598866 1.6047535741827 1.5728203021521 1.7659370250607 0.82929622618996 1.6415506295982 1.6612205950038 1.8104979714397 1.0163261647819 1.7847735601687 1.0699193904628 1.9804011962633 1.69285268807 1.4303092964538 1.7614252670663 1.3074313463045 1.3713103159045 0.74986703282903 1.0384669428081 1.3811174041986 1.774953680313 0.51525155205029 1.663539717344 1.1675567772352 0.96519715242833 0.47739452596888 1.0938199459025 1.2770650235024 0.76211895699121 0.4931410318985 1.4572334837887 1.424182232368 1.3697778073028 1.9914793926522 1.7887519599115 1.691316849373 1.4348343940093 1.4533147604915 1.7960914520916 1.9422352775421 1.2810196862523 1.5055637490343 1.5616837765356 1.784734961784 1.0098394981049 1.6486171994541 1.8104663514654 0.88568338824002 1.1170053290292 1.3146735855819 1.0370827041764 1.4928965248945 1.8052707255801 0.8435694342851 1.4754287015181 1.6782543509206 1.5930653662968 1.4414580984542 1.8446223285612 1.1895935359934 1.0142369037391 1.9983261752966 1.362220705523 1.3353588566987 1.3475717391043 1.3882027501688 1.5891522564809 1.645429529741 1.6543937403445 1.4327123888304 1.362181064989 1.6038612410993 1.4015388711538 1.6084627566689 1.5290914010892 1.5819743690629 1.8619877662477 1.447924944034 1.4218664855816 1.2481780887456 1.1221761653709 1.6453113003028 1.4345937826601 1.5833318429597 1.7479246350245 1.8810449286603 1.4447959587605 1.1339205592773 1.3616161817427 1.3172888270937 1.0934705311519 1.3581870407857 1.0021974751296 1.6963147023219 1.001115972469 1.6348164791793 1.4842628023585 1.9589261447285 1.7112653000012 0.94321495207319 1.8437309337899 1.6880723708659 1.5404065193371 0.46794413796396 0.6068066965796 1.4138398021863 0.95545116550812 1.4934833913364 1.0178121213392 1.4252573289015 1.5729367641262 1.9263496121633 0.88333663645416 1.4150274647755 1.2303660972397 1.2373184448732 1.4891135235734 1.4401505399117 1.418549990673 1.2823261145096 1.5262424360699 1.3400454029673 1.4312736202458 1.1481326005126 1.1803407258653 1.2669292077565 1.5114045960871 1.4547904142266 1.2083109977249 1.6597173545117 1.4860171827924 1.3375800036328 1.6005012022384 1.3861814485323 1.5639301617197 1.2793396805009 1.6460877963388 1.4372772916257 1.6487096206985 1.4266923149148 1.5067954202425 1.6205799798345 1.2549889618604 2.0049993546354 1.4992412245638 0.92345693331386 1.4207612754484 1.3713939441833 1.7223854120796 1.2663111226785 0.96925113030171 1.1815875851827 0.89135930622673 1.8338534892937 1.0139160208227 0.92695295931671 1.4695498448722 1.3572516773285 1.4190371137064 1.8816622289665 1.5871263977843 1.7098424495078 1.3720064146991 2.0196879975091 1.8203859489369 1.3967018624909 1.3895759346113 1.3918349120942 1.0012280514854 1.3777884867375 1.4683881493671 1.5807541531795 1.3961444837395 1.4596125245812 1.4648283334313 1.7000996311129 1.8727020668537 1.391015815843 1.3695141019697 1.4496973551511 1.4254775346439 1.7492959866307 1.7153635730761 1.2200520888091 1.6555687041287 1.5345519499948 1.2077396984362 1.268655992091 1.1422553425152 1.1381317550382 1.186834468942 1.4720459844218 1.4053336721161 1.4730074341583 1.46637339108 0.94830287372732 0.82983400980282 0.90578528229552 0.89572725925076 1.3926144121189 0.90802017151272 1.2715389230168 1.3602980146107 1.2135156991262 1.3764251947743 1.2719220148611 1.161333023597 1.1403210640492 1.153034804812 1.1684809140912 0.73969343366011 1.1300209270743 1.0436896804063 1.2017894143485 1.2944672008214 0.98967329559367 0.72115548369887 1.108427733768 1.1608218063722 1.0047125328195 0.97401177704291 0.85176382012647 0.86051513125684 0.94068699249147 0.76916034275099 0.84367904186927 1.3858566860057 1.2814213167425 1.1207533003746 1.3613279668441 0.7727042354916 0.91726355513172 0.96478325619065 0.80200577363055 0.84386457901811 0.83461513584452 0.80827061018356 0.74070438561789 0.96755842072105 0.87517403029997 0.92628732028648 1.5501946730224 1.1773006126024 1.6903031943089 0.74833102840041 1.7214351460077 1.3814904884111 1.1544125689497 1.0879561006243 1.6752800797326 1.5127577395603 1.3791261083909 1.5680689698243 0.56628863917262 0.78062421566303 1.3897246186623 1.6570784055693 1.6724941081861 1.3642041319427 0.9542290725171 1.3389076118155 1.8421265895455 1.5810803886861 1.7033107380244 1.3371608051424 1.3952327167128 1.370843537136 1.450797598209 1.2958969582124 1.0682648285758 0.87338127775425 1.4714963368232 1.9221983923079 1.4611728352418 1.4462246323432 1.4634539385679 1.1944174551075 0.55104667068605 1.2394018128968 1.3139230578364 1.3338527169118 1.4154132972313 0.90408199860187 1.4095717113572 1.3680040215873 1.3957768320889 1.336415258546 1.3465469694552 1.3647788558506 1.3298125807255 1.3451692885799 1.3904258754093 1.403924649731 1.3137653625109 0.66258320227126 1.3824987482487 1.337591703415 1.3877205261866 1.3763249726681 1.3818671453644 0.86227305094305 1.4144469976677 1.3911590109495 1.413229691173 1.3633827455998 1.4257744904411 1.380542841468 1.4280368079178 0.90822820345739 1.3394604689565 1.3175024804506 1.3397613974554 1.4602717004844 0.76365210287778 0.8662063021644 1.4066943092082 1.4843552681059 0.88833078237204 0.92153493301092 0.89156225400922 0.82668748949645 1.3763646749023 1.3376047658647 1.4176823670507 1.4327130178909 1.366020413662 1.5253378183653 0.92665163096103 1.3949943688169 1.6567559139264 1.5891029087554 1.5146657801711 0.89095576159379 1.4498721749297 1.4255356377925 1.4555963988033 1.3614402528791 0.83253618046242 0.84153810361494 0.85183768579727 0.90430742987742 0.79946899029077 0.93330180502311 0.81678907521807 0.85167694524207 0.80180504304351 0.79088154925647 0.84275628300955 0.8648129861476 0.78152374131111 0.78090242515735 0.81808232688589 0.88701669986162 0.80129345807398 0.81189202685701 0.75041639325988 0.70948236762565 0.7928591731609 0.80789151215124 0.72839822844286 0.73276392622154 0.79399870912292 0.86121455527972 0.80417477837632 0.78393002024169 0.84536402476352 0.77548338872596 0.7892106952174 0.97030562999217 0.77467156654979 0.7149541144552 0.76575190954161 0.87714549127731 0.69916144560395 0.76621753913259 0.74482839417296 0.74404509250418 0.96179080781562 1.460746660493 0.7973279969615 0.72014691648475 0.66661147589589 0.71071706713996 0.76754786115533 0.73578682625529 0.71771971296435 0.72661688554153 0.68537281829233 0.929346001046 0.66846234445349 0.62432264707072 0.73824519885228 0.70896343711145 0.81672278912073 0.94824964310704 0.82347303124716 0.80363377333413 0.73800377883884 0.70726610678285 0.69690810557755 0.71625401269599 0.65923160561205 0.69525600398975 0.69018073151336 0.65969957387327 0.75274362887547 0.69412071176161 0.63407012154902 0.59145430704105 0.82853830734652 0.72346503057676 0.61837367401252 0.6608028118946 0.90746285237364 0.90916846170919 0.87776039775714 0.76548369721607 0.64561558917913 0.69564973498227 0.86190074250389 0.7726127947298 0.89049240285241 0.93336577010834 0.77371242226962 0.71440898623121 0.85562947823382 0.83407696682422 0.83256754350212 0.75903377040861 1.3484556258932 1.4011267666231 0.61117903948539 1.0076871397613 0.59510825150217 1.0902636002394 1.0687349566254 0.6210131226782 1.0483291181193 0.83593105497941 1.0258301147589 0.91954105121088 0.99708184739778 0.83679888358319 1.1199411865688 0.98194217013768 0.96737894740757 0.90457699253099 0.96834379353946 0.6576439437531 1.0733859407764 1.0709159667643 0.5596781461378 0.70614189530424 0.95022818780559 0.93702845072167 1.2545494388367 1.0983616467869 1.0934657874803 1.0002761189318 0.71540352856037 0.66180613763062 1.0262913618016 0.64749078663964 0.64308541426638 0.71449196297589 1.0699335576438 1.050444274573 1.1498613684476 1.1507780585588 1.1586836080423 0.79429070594727 1.1690554603336 1.0158712430513 1.1040865722743 0.59396325558722 0.62284291629196 0.69356561227419 0.68816949518767 0.57907208918317 0.99928767059636 0.70512197042256 0.68285178458483 0.55027750436966 0.51706640594179 0.56272722170827 0.52286746815025 0.68234427917405 0.55803454941516 0.56245141293657 0.47167420093742 0.60280072728445 0.53423862200942 0.59290756903915 0.44136687194725 0.61758633292827 0.53597078787109 0.57817347794035 0.59226730435922 0.50982467863691 0.39423811373911 0.55722217499162 0.53411919793996 0.64419348559182 0.48395991268599 0.40234580359511 0.55389484583542 0.67827584455865 0.46416408676342 0.51626291254127 0.62555012523165 0.73378407745786 0.42365426381399 0.32046193843017 0.52521375484557 0.65987677980456 0.6338441688443 1.2910906307246 0.77098068537355 0.80614605426554 0.50464442323975 0.36862760221305 0.48378311818016 0.46583438058228 1.4043672720233 0.50554316534201 0.47031981248575 0.26830154392464 0.44743240456 0.47198720845108 0.60596447719902 0.46108117573755 0.39740710578864 0.52727856057927 0.35309589262985 0.67060375533392 0.55420787443029 0.65614645623237 0.50349677366213 0.6342339299208 0.3863052622024 0.32360356133431 0.38775578268924 0.55322230958374 0.45786336392957 0.42155563998736 -0.11546718843259 0.40557001953824 0.321204558437 0.28661654915467 -0.066528165429416 0.17661921802373 1.0718854774357 0.86882756995118 0.67323104230665 0.89717940498344 0.61961545498362 0.75416957972448 0.67121824241528 0.8442719762625 1.2090281443883 1.2655907414081 1.6805794616784 1.4671716273635 1.4649452288535 0.92678168827185 1.4629277640104 1.396013112749 1.440544511979 0.98088247095521 0.88151822517927 0.90560925320606 0.88635199215967 0.95682781050621 1.4048561357282 1.391309151204 1.3602572290709 1.3585661263545 0.95847836449064 0.79984338232316 0.87729352600279 0.91619595261146 0.83619755480683 0.84550135636527 0.74328986537507 0.74476714568797 0.82509970949316 0.9010274790046 0.77650603805122 0.85318430172211 0.84972004352129 0.821764199549 0.74714910513623 0.78187743483481 0.79137273246484 0.72799343291393 0.77687522809466 0.75854943025999 0.69733374480405 0.69275118169255 0.81071018496633 0.75082191713276 0.65297759968229 0.70658088285722 0.70451888275112 0.73247351794056 0.6697029872191 0.59229041276387 0.67109369379432 0.66815942737624 0.7021