# vtk DataFile Version 3.0
d-2__ created by libgimli-v1.5.0-1-g5991b6ac
ASCII
DATASET UNSTRUCTURED_GRID
POINTS 3056 double
16.047984885364	9.2005108665658	0
16.227640130622	9.31797770521	0
16.052808675398	9.4151062914457	0
9.6856707273838	12.779965388042	0
9.5840448320983	13.008863982168	0
9.459889155087	12.888340064957	0
9.4017034496321	12.989518397958	0
9.4966291044861	13.057428275285	0
9.409213376874	13.105992568403	0
6.9615730037337	14.465792775704	0
6.8666473488796	14.397882898376	0
6.9945996683525	14.319328169198	0
10.283370652996	12.620349637225	0
9.9337077425469	12.814606809696	0
10.035333637832	12.585708215571	0
10.370786380608	12.571785344107	0
10.246630703596	12.451261426896	0
3.2	14.888006064741	0
3.3935321886838	14.815842352641	0
3.3	15	0
10.363276453366	12.455311173661	0
3.05	14.894536113346	0
2.95	14.834347813918	0
3.0997032337695	14.698789777549	0
22.54986393823	5.4610590293129	0
22.601478319067	5.6563101371606	0
22.484832569298	5.6522603903955	0
7.8357302798552	13.980149844525	0
7.7483145522431	14.028714137643	0
7.7115746028439	13.859625927314	0
8.7098875559768	13.494506913346	0
8.6224718283646	13.543071206464	0
8.5857318789655	13.373982996136	0
21.698091020789	6.0893390284563	0
21.734830970188	6.2584272387846	0
21.639905315334	6.1905173614571	0
4.9002967662305	14.698789777549	0
5.05	14.834347813918	0
4.95	14.894536113346	0
8.5275461735105	13.475161329137	0
8.5350561007525	13.591635499582	0
23.708017310135	5.0679061559452	0
23.57570494199	5.2584272387846	0
23.492391392804	5.1534065041647	0
7.9373561751407	13.751251250399	0
5	15	0
4.9	15	0
25.208739718026	4.888006064741	0
25.308739718026	5	0
25.108739718026	5	0
6.7500015991102	14.393833151611	0
6.8150329680421	14.202631790528	0
7.6608988246309	14.077278430761	0
7.653388897389	13.960804260315	0
12.90584248136	11.163420843689	0
12.869102531961	10.99433263336	0
12.993258208972	11.114856550571	0
14.304494123155	10.386392153803	0
14.40612001844	10.157493559677	0
14.654157033603	10.192134981332	0
11.237433729487	11.969668242483	0
11.18581934865	11.774417134635	0
11.36538604896	11.891113513304	0
11.120787979718	11.965618495718	0
11.885664010266	11.385614544848	0
12.082360983452	11.431411271421	0
12.024175277997	11.532589604422	0
13.080673936584	11.066292257453	0
12.98574828173	10.998382380126	0
13.867415485094	10.629213619392	0
13.77248983024	10.561303742065	0
13.830675535695	10.460125409064	0
10.909490913954	12.100065284392	0
10.844762499738	11.765076855645	0
12.934133900893	10.803131272278	0
3.6	14.810067208388	0
3.7	15	0
3.5	15	0
12.657805466197	11.128779422035	0
12.556179570912	11.35767801616	0
11.244943656729	12.086142412928	0
11.157527929117	12.134706706046	0
1.3	15	0
1.2	14.888006064741	0
1.4	14.810067208388	0
1.9	15	0
1.5	15	0
1.7	14.849260526121	0
12.119100932851	11.60049948175	0
2	15	0
2.05	14.894536113346	0
2.1	15	0
12.031685205239	11.649063774867	0
1.0997032337695	14.698789777549	0
1.05	14.894536113346	0
0.95	14.834347813918	0
11.332359384341	12.03757811981	0
5.7	14.849260526121	0
5.5	15	0
5.503868896942	14.598288840263	0
4.064468339761	12.492321883392	0
3.9817116885018	12.918420923089	0
3.7670358212135	12.67328000924	0
13.779999757482	10.67777791251	0
25.602637769837	4.524993056905	0
25.708739718026	4.8492605261212	0
25.458739718026	4.8343478139176	0
14.734062833973	10.027096517768	0
14.682448453136	9.8318454099206	0
14.862015153446	9.9485417885899	0
-0.24940646753892	14.834347813918	0
0.05	14.834347813918	0
0	15	0
15.804771660235	9.3804648697915	0
15.703145764949	9.6093634639172	0
15.578990087938	9.4888395467067	0
29.767533861964	4.3398980943704	0
29.508442951795	4.548348532907	0
29.495546029131	4.1485808085627	0
0.1	15	0
0.3	14.849260526121	0
27.458739718026	4.8945361133462	0
27.358739718026	4.8343478139176	0
27.508442951795	4.6987897775495	0
0.5	15	0
16.678928936356	8.8948219386129	0
16.4287009421	8.6628888321103	0
17.028591846805	8.7005647661415	0
1.1	15	0
1.95	14.834347813918	0
20.105956534257	6.4151422964054	0
20.247470662652	6.669867727517	0
19.925330046586	6.7203171073957	0
21.501394047603	6.0435423018831	0
24.087916739041	4.9470663132613	0
23.750549209437	4.5440302871062	0
2.3	15	0
2.2	14.888006064741	0
2.4	14.810067208388	0
26.308739718026	5	0
26.358739718026	4.8343478139176	0
26.408739718026	5	0
25.008739718026	4.8100672083876	0
24.908739718026	5	0
3	15	0
2.9	15	0
1	15	0
21.472583787351	6.4041201181382	0
21.297752332127	6.5012487043739	0
21.301387084399	6.2885606170178	0
19.199774869435	7.6667917392027	0
19.112359141823	7.7153560323205	0
19.104849214581	7.5988818618751	0
6.1791038580454	14.704649136022	0
6.0874157276122	14.951435706882	0
5.95	14.834347813918	0
6.8741572761215	14.514357068821	0
6.7867415485094	14.562921361939	0
16.402471585846	9.2208491189743	0
16.260666795241	9.171513098704	0
16.394961658604	9.1043749485289	0
6	15	0
28.922845333402	4.5823118347521	0
28.708739718026	4.8492605261212	0
28.602637769837	4.524993056905	0
4	15	0
3.95	14.894536113346	0
4.05	14.834347813918	0
28.108739718026	5	0
28.208739718026	4.888006064741	0
28.308739718026	5	0
7.136404458958	14.368664189468	0
7.1315806689246	14.154068764588	0
7.3112359141823	14.271535603232	0
23.945942620228	5.1435706882137	0
23.403806383266	4.93902940218	0
3.9	15	0
4.1	15	0
27.608739718026	4.888006064741	0
27.80227190671	4.8158423526409	0
27.708739718026	5	0
17.36404458958	8.6866418946778	0
17.356534662338	8.5701677242324	0
17.451460317192	8.6380776015599	0
5.3	14.849260526121	0
5.1	15	0
14.617417084204	10.023046771003	0
5.9	15	0
6.5387045333462	14.528279940285	0
14.998996154018	9.7832823839802	0
15.178651399276	9.9007492226244	0
15.003819944052	9.9978778088601	0
4.3	14.849260526121	0
27.508739718026	5	0
16.453147364059	9.0031966155281	0
16.256450390874	8.9573998889549	0
22.871235429146	5.6270914282524	0
22.72943063854	5.5777554079822	0
22.866411639112	5.4124960033725	0
21.122920876903	6.5983772906097	0
20.948089421678	6.6955058768454	0
20.981116086297	6.5490412703394	0
1.8827233936571	13.413209492963	0
1.635985724768	13.057931042977	0
2.0585343714792	13.116469985366	0
13.63397856251	10.414328682491	0
24.321832839145	4.8833962425865	0
24.408739718026	5	0
24.316180298466	5.0287141376427	0
24.708739718026	4.8492605261212	0
24.508739718026	5	0
24.458739718026	4.8343478139176	0
23.483145522431	5.2871413764274	0
9.2631921819019	12.842543338384	0
25.358739718026	4.8945361133462	0
25.408739718026	5	0
25.508739718026	5	0
12.206516660463	11.551935188632	0
3.1	15	0
12.308142555748	11.323036594506	0
24.679068235604	4.239790780138	0
25.006267059794	4.3425605622482	0
24.599747236054	4.5734506034563	0
22.521572518697	5.8213486007239	0
22.608988246309	5.772784307606	0
11.502367049532	11.725854108695	0
11.68202229479	11.843320947339	0
11.507190839566	11.940449533575	0
10.491228772839	12.376756444483	0
10.633033563444	12.426092464753	0
10.45820210822	12.523221050989	0
22.696403973921	5.7242200144881	0
23.395729794819	5.3357056695452	0
23.358989845419	5.1666174592169	0
2.8061019481889	14.524993056905	0
2.7	14.849260526121	0
26.108739718026	4.8492605261212	0
25.908739718026	5	0
0.9	15	0
26.458739718026	4.8945361133462	0
27.308739718026	5	0
27.408739718026	5	0
29.358739718026	4.8343478139176	0
29.408739718026	5	0
29.308739718026	5	0
26.508739718026	5	0
27.108739718026	4.8492605261212	0
27.214841666215	4.524993056905	0
28.408739718026	5	0
28.358739718026	4.8945361133462	0
28.458739718026	4.8343478139176	0
28.508739718026	5	0
21.923872593085	5.9809643515411	0
21.8222466978	6.2098629456668	0
26.708739718026	5	0
26.608739718026	4.888006064741	0
26.808739718026	4.8100672083876	0
28.908739718026	5	0
29.108739718026	4.8492605261212	0
14.056457107991	10.351750732149	0
13.954831212706	10.580649326274	0
29.658146185565	4.8343478139176	0
19.54461398985	7.2579391418513	0
19.724269235108	7.3754059804955	0
19.549437779884	7.4725345667312	0
21.647415242576	6.3069915319025	0
13.250681601775	10.754568246337	0
13.430336847033	10.872035084982	0
13.255505391809	10.969163671217	0
9.2674085862685	13.056656548133	0
16.489887313458	9.1722848258564	0
16.577303041071	9.1237205327386	0
17.626291772416	8.5409490153242	0
17.484486981811	8.491612995054	0
17.621467982383	8.3263535904443	0
21.284504402929	5.7190625713937	0
21.673644598829	5.7490312450385	0
17.276628861968	8.7352061877956	0
16.926965951519	8.9294633602671	0
17.239888912569	8.5661179774673	0
18.11404618869	8.0804750462887	0
17.902749122926	8.2149218349628	0
17.83802070871	7.8799334062158	0
18.238201865702	8.2009989634992	0
18.150786138089	8.249563256617	0
8.5612854570062	13.033675212718	0
9.0547266763919	13.085654315995	0
8.8115134512622	13.265608319221	0
14.741572761215	10.143570688214	0
9.2343819216497	13.203121154639	0
9.0595504664254	13.300249740875	0
9.4354427331278	12.548032281539	0
9.6630878033521	12.327490919146	0
15.615730037337	9.657927757035	0
15.520804382483	9.5900178797075	0
9.9706052236163	12.250719786823	0
14.828988488828	10.095006395096	0
15.528314309725	9.7064920501529	0
19.986516417945	7.2297131011419	0
19.949776468545	7.0606248908135	0
20.073932145557	7.181148808024	0
20.175558040842	6.9522502138984	0
25.309036484257	4.6987897775495	0
20.860673694066	6.7440701699633	0
20.853163766824	6.6275959995179	0
22.273535503534	5.7867071790697	0
22.208807089318	5.4517187503226	0
3.1317176073544	14.309812537406	0
20.736518017055	6.6235462527528	0
19.891590763091	7.1618032238144	0
19.899100690332	7.2782773942597	0
28.008739718026	4.8100672083876	0
27.908739718026	5	0
18.23069193846	8.0845247930538	0
28.309036484257	4.6987897775495	0
27.895939159663	4.4709363375124	0
28.265207298324	4.2898533340251	0
18.988203464812	7.59483211511	0
23.147692779655	5.301064247891	0
23.04606688437	5.5299628420167	0
19.024943414211	7.7639203254384	0
20.773257966454	6.7926344630811	0
20.423595056005	6.9868916355526	0
20.525220951291	6.7579930414269	0
18.325617593314	8.1524346703813	0
22.171909608248	6.0156057731953	0
18.358644257932	8.0059700638753	0
18.500449048538	8.0553060841456	0
13.113700601203	10.919827650947	0
18.179077557622	7.889273685206	0
[...]
CELL_DATA 5825
SCALARS Coverage double 1
LOOKUP_TABLE default
2.315050119881 2.3194276026668 2.8538980087777 2.3311201902771 2.3292742583414 2.8443363660427 2.1526771725382 2.2841016030823 1.8680210420305 1.9129217645398 2.757591179702 2.7912408649789 2.2622143982716 1.8974696234594 2.8327121885786 2.3218156914822 2.2612398434723 2.7672910840096 2.4082332582183 2.4210911477462 2.2110250583424 1.9313607364929 2.7969734341941 2.8795236663795 2.3623884699893 2.2213329932678 2.048191538765 2.0577429370504 2.9104808501973 2.4371829551307 2.1327584942106 2.3495149886878 2.068232611042 2.1164741566433 2.3526451260975 2.8512527176705 2.0611524271692 2.1248692424103 2.4191708797023 2.7283222581293 2.8828864290008 1.6469431841803 2.8818425093699 2.3283487380322 2.039540474837 0.75438035183838 2.9224091486127 1.9361958438465 2.2819900308649 1.4597504253504 2.3732201113113 0.79842063138935 2.164461789365 1.7536121271307 1.7080328497444 1.78060695966 2.1567928943274 2.2110313629415 2.7158379252277 1.7816100000821 1.9309012643822 1.9594238342839 2.1278831915006 2.6724683456327 2.0899456403629 2.7393803410808 2.1539121837867 2.7301886418805 2.1862926744074 2.020172521196 2.8684409119783 2.0483534847607 2.7681915193629 2.4635155798175 2.4152738149059 1.6226040376799 2.1633338376207 2.1615031301517 2.1416744161686 2.2187126973666 2.2396997486893 2.1050669208582 2.7637993471633 2.7213971783021 2.0015862766462 2.9037843107606 2.2185644539023 2.0747990155097 2.4740461455478 2.2892816285477 2.3094949826177 2.2298563048483 2.169705772686 2.0531458091395 2.1754291832423 2.3597929367826 2.3435311377875 0.7301480224454 2.0769401462752 2.8183291630506 2.2547591681631 2.856982261699 2.0296047945566 2.7039063016744 2.6895512361055 2.8585938683606 2.1108524831465 2.7599377300495 2.3572701194756 1.4978872243286 2.7845801763541 2.2900263893988 2.8164456987648 2.413049443553 2.8162324555915 2.825850831173 1.9978095023154 2.3216317834333 1.9331361058153 2.090124999018 2.1827022586597 2.7096006053312 2.1495993183417 2.663341207717 2.14635266785 2.7178817465735 2.1357801633299 2.2721614193451 2.7198672656101 2.2527681193509 1.8292838583571 2.186401725768 2.6840255610297 2.2704151176423 2.0465715236846 1.8453443174482 2.3872706939544 1.5733831317894 2.6947669079319 2.0714386586238 2.8014587942598 2.2224269587665 2.7301695221092 2.8279638264418 2.3058019316992 2.4376974405135 2.8770867061164 2.368699061247 2.3084359076083 1.7078497829387 2.3450215696891 2.8727514278082 2.8972179856913 2.062168930384 2.8501039025134 2.097152396824 2.8865386821836 2.4401397707029 2.2856284586392 1.9427277925311 2.3838420282612 2.1325122115093 2.9245124612625 2.3101974360715 2.8738509418605 2.9013034653332 2.7738457054692 2.2939086492296 2.430775662839 2.8100544376059 2.8280478943448 2.3194364072788 1.7801007364894 2.8698356754085 2.8374787188584 2.3020745076391 1.9830633989724 1.607525406075 2.3757849533515 2.8608585218925 2.0859168476988 1.9556884170008 2.3112804092806 2.430191367973 1.4065075743873 2.1634473435824 2.4107411266736 2.2181243459546 2.8361588987935 2.3145527733712 2.2630360099111 2.8847996260345 2.9074338228174 2.3779992227709 2.2218315627083 2.4123323753826 2.8038972273498 2.2409586888158 2.0284404032507 2.3003227501356 2.2919052796159 2.0332285208826 2.3049306106797 2.398346035292 2.2726809693543 2.4139420743348 2.4407364321803 1.7982781983468 2.2474404989043 2.2731494515362 2.2684675701733 2.2850689971636 2.1687705254802 1.7549911833415 2.1971089170233 2.3313675296233 2.3843157416401 2.0429606295291 2.4298843767554 2.4494188228975 2.4811073045908 2.4387696951003 2.4649065422477 2.2624844634249 2.3658561715671 2.0136692692478 2.3865883931579 2.0208498544432 2.1936535238298 2.335346494696 1.8870507680397 1.797888568102 2.2043354941449 1.9903890666562 1.9901192735522 2.2323119176038 1.9091146128186 2.04944904873 1.5385094063273 2.0933026616946 1.5195205394745 2.0574611635707 1.9392000681626 2.3312260526779 2.2114434873112 1.7534349201797 1.9632839998628 2.2333747853197 1.9835335749615 2.4248121377218 1.8684081203855 2.025668491008 2.2522022160074 2.1828987524702 2.3127587667068 1.9971694233446 2.0477405119871 2.071122228869 2.319803791884 2.2610504078166 2.2645727104057 1.9787145502714 2.2076499427409 2.2456329880077 2.3874750755944 2.3538598970367 1.899018036944 2.4118588710134 2.1715195629538 1.8959616953785 1.923110971167 2.30577861571 1.5012001370953 2.0683280830575 2.1863326180748 1.4943790519733 2.2579644668995 1.4784193175565 1.8605947441371 2.1741193819249 1.6097168624949 2.009458684055 2.4422665656588 1.8824550102216 1.963071957837 2.1925605858375 2.0937471398497 2.3134048071935 1.9765719907928 2.1954551193409 2.3594864903859 2.2560507107403 2.2979733136996 2.2994515813252 2.4539414064579 2.4230005577679 2.145224068307 2.2051142202484 2.3271725688551 2.3030809254065 2.4592166183677 2.4308464748329 2.3185493498888 2.3126022678839 2.4780105101261 2.4482914654522 1.7604041688687 2.3614420349721 2.0706983661021 2.396776803296 1.8304163191318 1.7459128713033 2.0819674628034 2.2162327308477 2.2852313830406 1.8855999642579 2.2155291449734 2.1044755880003 2.1354372652168 1.940224945881 2.3034374533133 1.935089748646 2.2576464490103 2.0101959829098 2.351938337171 1.9903468516518 1.9781213172048 1.784664008947 2.2221212885784 1.8603232367558 2.2419703784236 2.2729313471973 2.3537268915763 2.1416502527488 2.192254645879 2.134082968952 1.8796820440469 2.0890401233446 2.4429093669416 2.1058916733234 2.4582722211626 2.1444684065402 2.4306699187036 1.9752442209375 1.8137315721541 1.7854542832929 2.0642385501425 1.8251149721841 2.1475756012361 1.9910221724663 1.9273087102179 2.1549828750325 2.1272414058069 1.9915843371988 2.2327103413881 2.2349601960292 2.2335099302132 2.0611485121599 2.4242629008951 1.887241075005 2.2075948544818 2.2611210764846 1.9256224235731 1.8453277194358 2.1180783068638 1.9899050767228 2.0023309834704 1.5775141082751 2.0187162001376 2.3116570323668 2.1371843048215 2.2386408650154 2.1081106681044 2.024226794926 1.8392159518465 2.3394125146051 2.33808290713 0.60431099963221 2.2281374552991 1.0240048660988 2.3688142927735 2.285992601877 2.0826578284977 1.8967435660082 2.2979422159349 2.0008972630191 2.1145004962659 1.8139451882449 2.1631996345602 2.0103325609707 2.0253573503318 2.2569780327948 2.2874362578038 1.9254446914302 2.3069260978023 1.9100665575254 2.0399521732545 2.1426700141806 2.1559457971791 1.9792642488767 2.3265148330699 2.2488088245974 2.2684947473045 2.1913711588398 2.2991534671037 1.9461303439509 2.3620460071437 2.2401122415484 2.0497563957508 1.2842291603137 2.1123786839995 1.794216561345 1.734988260431 2.1345234045569 2.1298227130199 1.8420889727289 2.0920934730905 2.1177185887279 2.0383223172558 1.7420473115487 2.1202915397354 2.0027286079533 1.780166876311 1.494444348546 1.7992781176649 1.8184284181068 1.783778432017 1.9774359364985 2.3578689203969 2.2523373868407 2.1364068039057 1.9806455466206 2.381188610687 2.2141160271577 2.1055877005065 1.867603012377 1.766356117149 2.2423784355162 2.1270030201946 2.0455479627278 1.9990070358463 1.8177658950701 2.3810258610581 2.237244390901 2.1387228039325 1.9125400384227 2.2767069903827 2.1587106659162 2.0871704825114 1.199503669877 1.2081938059257 1.5185345525111 1.2968041892262 2.2539918114753 2.1288410066906 1.9536190651435 2.2068683728268 2.084198647873 2.2006301456192 1.9738321132523 2.0320029857258 1.9727985397724 2.1996606387004 2.1387207592994 1.9657053132585 2.2431321925154 1.9921353419718 2.2223225950467 2.3126117946943 2.2127891944761 2.035721144684 2.2623560465597 2.1218161780075 2.2386225426038 2.0625868146752 2.0021200468236 2.0643364963772 2.3147530130782 2.2427409047396 2.0648809028395 2.2464433232353 2.1226510286507 2.2275900974499 2.3287846966625 2.2246413747391 2.043882650692 2.2758373899427 2.1203067018407 2.240736332118 2.2525883696917 2.0182156619447 2.2258544945621 1.9983217601358 1.8819414454564 1.6420612658563 2.0699702775625 2.132110563549 2.048079467926 2.078507697952 2.0632431754474 1.8903005175446 2.0711178643208 1.9884849988388 1.7362312910451 2.1094236165633 2.0831880106077 1.8631364055039 1.9315495057735 1.9620682025306 1.8486126600584 1.9016956191603 1.9173741833173 1.7355070162265 1.9820335997953 1.9621905245373 1.7468098033921 2.2406594868618 2.1298584872571 2.219535033626 2.1290599849045 2.0242905403073 2.1070825097106 2.2121657719975 2.2005966219984 1.9760693826252 2.2328964489998 2.2119061051712 1.9877681674485 2.2614660117207 2.1992708730909 1.952498232095 2.1723664699242 2.2390657060343 2.1415939267663 2.1840989468731 2.1889101114966 2.0168186495331 1.8105202496857 1.9841031633087 2.027328109272 1.885160094009 1.733298452841 1.489115479038 1.8629711209005 1.6039034874574 1.5102091994312 0.7104174062765 1.992941904178 1.9277162916013 1.6882024863244 1.3848015287312 1.622355016776 1.711699927417 1.8035936509332 1.9585246742746 1.591710297709 1.7234601332478 2.1039763029125 1.498960578025 2.0016254648333 1.3760361540234 1.1099051122996 1.7457631176009 1.6799634176444 0.51960768251802 1.7941004468646 1.7152717930002 1.8237452122871 1.6507047709639 1.7614458124874 1.6682778893656 1.6075921158995 1.6619362588149 1.6799360359313 1.1022159561655 1.764927286762 1.8959677596251 1.3909923326465 1.8034907155144 1.8161473089498 1.8027164764138 1.5574468095551 1.812977620235 1.9299295682448 1.8337040794599 1.5180111157202 1.8266823953666 2.0627171489052 1.7927907178441 1.8158443357099 2.0478991680124 1.9657344148789 1.6957911647319 1.4630217196649 1.7205045292846 1.4493814864588 1.3578137167663 1.5776930824644 1.7992292552798 1.4158429806612 1.5480583430474 1.3991655073119 1.5087973869782 1.391852829462 1.2476138069592 0.99566831810167 1.2611136370528 1.3634650237424 1.1929850274529 1.5529144849902 1.5218053330717 1.7940667221256 1.3989699409635 1.7528232125231 1.7258969451151 1.4936444080761 1.7517835962947 0.51182372114899 1.0846863075644 1.3927806657105 1.1362166364498 1.1550791553249 1.5410261998765 1.508214426853 1.2023924903313 0.50460201071798 0.91985836620731 0.43084066504547 0.56317735306742 1.7261854204162 1.7918519931748 1.657396301586 1.520336409137 1.6330246775963 1.6236383314788 1.2718986169732 1.0658665800944 1.4268351993506 1.8769852551838 1.2705384897961 1.9270358949284 1.3330016530783 1.2079453027419 1.7910153469759 1.5233703357964 1.379066566422 1.4911865278969 1.3780416684739 1.5125138224459 1.7228058335878 1.4062404421851 1.3267120262646 1.3411352171232 1.7814161359976 1.5069135909802 1.4384457786481 0.90626344126278 1.8021533681004 1.5737314784549 1.5737867403182 1.4010399837378 1.7879601378852 1.5196377152272 1.3176260439113 1.3877223630931 1.3513528324552 1.5382472676772 1.2773578503519 1.2590509197879 1.5236937912809 1.0858503752822 0.87611317900781 1.008575963492 1.7413750119796 1.4689677236044 1.7408874379499 1.5248716890537 1.7775477942499 1.3641129609297 1.7332335323158 1.327610790097 1.4820442940977 1.2717177884701 1.1622245430629 1.5552745227821 0.99415017121151 0.44397232540096 0.93822213440939 1.0246325491935 1.3333316120195 0.9775977512815 0.54357399397578 1.2015673553067 1.23112352008 0.16950277814104 1.4760598321902 1.2448614602123 1.2956172069744 1.1835495544742 1.4697634071747 1.2784320714015 1.5436892780206 1.421466230528 1.3294150208416 1.1836064198509 1.5106812790306 1.3761227685223 1.582296342188 1.3799821975362 1.3991580889033 1.4126511734632 1.5824711907631 1.3888143838503 0.82334000287649 1.4036913865322 1.3395055757715 1.3892386316078 1.0307090425398 1.3299405213077 0.93530346005043 0.99248386881566 1.0999716385166 0.6477616270536 1.3643930798565 1.1588083758425 0.93948164184387 0.86215000720292 1.4602270638921 1.4184276214081 1.3152140565945 1.2778012232787 1.4739921707925 1.17322914474 1.5328509619985 1.3217934373792 1.3947196555015 1.260939978465 1.5803381003876 1.2686579808045 1.6030446517237 1.3919658445853 1.3928450206906 1.4285195233847 1.6082620045348 1.3753217577932 1.3813170572741 1.4120689004423 1.2432672355392 1.0757883761224 1.3395832096012 1.3300026358681 1.3535845866739 1.304107867566 1.2888827263347 1.6050295029881 1.5478234770152 1.3130198499764 1.3189295741582 1.3823679524323 1.9057488264963 1.4933276433767 1.243041944961 1.3264539758986 2.0716710200148 1.5846391918543 1.4176982129968 1.3385994966509 2.0824939985823 1.5702575626977 1.3905388945402 1.2997838253813 0.92429783544917 0.89847257009807 0.94742270456923 1.2991809501316 0.63683237297665 1.2639325898546 0.85792695718981 1.2750977529667 0.8363706037577 1.968445808763 1.5541146275113 1.2252971611089 1.2393971883077 1.8777140997883 1.4871794624586 2.0769680276227 1.8215810205054 2.0633549199532 1.8367909691901 0.7107662390362 1.1903743692314 1.3129188394574 1.159991996216 1.0583271558332 1.1753008355437 1.2556897660828 1.4829689277095 1.1880739398447 1.2648107085695 0.84735207331372 1.0854783375233 2.0082112442307 1.739741875394 1.4690962092749 1.2056591058563 1.1089705400293 1.249827130546 0.99328166889859 0.24694628517854 0.70792940823735 0.57464016477469 0.84715802053314 0.53944465713452 1.7437772048979 1.6600579201037 1.2617476336562 1.2109440327751 1.2986766141841 1.191331981832 1.2027875857499 1.2347045257629 1.1542426950089 1.180522693619 1.1201382013486 1.2935148541687 1.2611548656676 1.0855088803571 1.1804548451684 1.174265757409 1.1619576456236 1.0887943519919 1.108684150457 1.2566730312549 0.7981287826043 1.3681469689131 1.0412225944922 0.93469785134151 0.89295828586878 1.1752058942923 1.1282568818654 1.258951921589 1.4679371885303 1.3823248568782 1.2463065765304 1.2383635173063 1.2791986700367 1.3600814545081 1.1954271049782 0.85405176848915 1.0608346758497 1.0480118324617 1.1790888536916 1.0845504370632 1.2243552579585 1.1626876917421 0.96664831615037 1.0610634981392 0.94934041236769 1.0098092309245 1.1894478148061 1.3017245177284 0.91268805380671 1.4004736027666 1.367455162011 1.3680610082951 1.1352784356697 1.0714208928408 1.1400864119438 1.1946001913394 1.1297121636552 0.97406061561189 0.88617665672734 0.9449972335999 1.3614130412293 1.3655461298367 1.1140355571009 0.95087671557793 0.83407021779044 0.90528302648628 0.97859609701839 0.8739276238451 1.1057260155173 0.91851922425348 0.95177020363976 0.80946873451566 1.081681550334 1.3491947548472 1.095129463249 1.2849429655832 1.2690929460725 1.6709933373258 0.91241413753682 0.7791999658458 0.51484279732123 0.65168722478981 0.82587654433235 0.82503867731371 0.69132246533381 0.72276473740164 0.83759001876972 0.9098917353663 0.74781809227774 0.80702354606867 0.84853918305251 0.93599809469761 0.83496167221923 0.98413850171825 0.96402110377012 1.0575497837413 0.69529453331438 0.6901651041783 0.94196179791368 0.96538432568374 0.8100132644019 0.91950113101216 0.80741953691846 0.79708849485749 1.0741071101008 0.77871997424724 1.0912457458068 1.1307738674941 0.86209758933451 1.1091963512748 0.70881637852194 0.7395976203476 0.82087851044211 0.83139486151871 1.0503174590641 1.3637613127927 1.3904155756234 0.76841942712463 0.74537245059313 0.77510317554006 0.92575908810697 0.85282381384139 0.92879404517047 0.7666622613612 0.77999764371603 0.77507115569042 0.8315078188871 0.83077007134814 0.70559277265834 1.3816991423722 0.72525963404281 0.73479247990744 0.74039201112938 0.70446392060157 0.69163076374733 0.66273502577595 0.72614604920882 0.77198397463766 0.7320906693844 0.7079136781765 0.73926717628727 0.73777153741861 0.62863621004086 0.7055097744776 0.72375929504101 0.72487976030786 1.3920478752203 0.66377638262039 0.6959247834119 1.0272412179555 0.70398384273835 0.6362551357658 0.69413935509804 0.5975463345234 0.72596830356294 0.74299857848896 0.69518942955388 0.65229298560683 0.6898091091417 1.4081053972477 0.6562347511858 0.68596757205482 0.64265426099552 1.274003535573 0.75129133649501 0.68704587212427 0.75849497995957 0.7343783533091 0.67551672046939 0.64457845238481 1.1107526067962 0.61748029761391 0.64853435784377 0.61641235808609 0.65336272801251 0.67062835077686 0.67201525298028 0.62267325340559 0.66276302707984 0.61721938527455 0.62336802166112 0.7743225005718 0.65236176208148 0.65346116298378 0.83087640270766 0.62667145598227 0.68533281053814 1.0075422082089 0.75134957207924 0.81268401116919 0.57341119701924 0.60832534046402 0.53766002289889 0.65297479280108 0.62999970690511 0.61004430914493 0.65167558152392 0.54134279848094 0.59599043213412 0.59458753382218 0.6045557670233 0.97748712452825 1.0903566335506 0.54135046809759 1.204631329232 0.58914592335819 0.46993805316485 0.53034300895214 0.98313332505027 0.54670170819256 0.74610904931057 1.0864839673413 1.4859865958976 0.64522353532562 0.5844634639219 0.59790509795442 0.63525588931112 1.5440832198905 0.49968205173839 1.5254622590218 1.1083160826257 1.7093704741462 1.4015548574344 0.85909340765285 0.99375629134395 1.4971825820149 1.3676122023727 1.3980854173332 1.2216742348691 0.8471231859637 1.1825766499303 1.070170234698 1.2311778250648 0.50955961721682 1.2195702224519 1.075478148413 1.135958537709 0.83432706785611 0.96607122265023 0.73529507671409 0.8291328143626 0.98895302066056 1.1178627126919 0.95296201245096 0.40422927728016 1.4939147039982 1.2444675032721 1.1400159749264 0.81930053331339 1.3184665874445 0.18192293655395 1.0199437432972 1.4067565426143 1.2548327878795 0.99020668082478 1.1897693934469 0.77514009498321 1.3728140187656 0.60045079641613 0.98662141861952 0.72729866747088 0.61394024621938 1.4843777664252 0.94990989251834 1.7202095179531 1.5535056145971 1.4773799633936 1.1129065461365 1.329106620627 1.340614844627 1.1132710007535 1.2246137105545 1.1850601646866 0.90272090581491 1.5812849752532 0.76557895459761 1.4041493357303 1.2726276016013 1.3782214864275 1.3834228925724 1.3532490740761 1.2943629770469 1.0754093585402 1.170596814954 1.3679453702897 1.3125316514118 1.2620952819725 1.2906711352126 1.1583979780801 1.3125383105818 0.89460412894551 1.177353257678 1.2579015963095 1.1346867366918 1.3316439513838 1.1391499625654 1.0490449212555 1.1796044565295 0.8921879769183 1.1335496618382 1.0562774093612 1.0440309792225 1.339836433878 1.2896119199922 1.3747901773407 1.3951294174044 1.1186866301055 1.265872749069 1.3688695555799 1.7966807605519 0.89632751249374 1.373346787531 0.99787110035017 0.99182468274978 1.2576297304653 1.3494023116636 1.4956934726766 1.3981572372403 1.1357066349225 1.1728880247209 0.97995798028307 1.1486996692803 0.96468453875789 1.3666870656801 1.3578953756166 1.3985769687878 0.94230803964845 1.3418388908919 0.94419236435495 0.89637353745817 1.0145381545612 0.83911573144965 0.87567436561641 0.92889944972738 0.98738506467136 1.1287895196952 0.66025521617827 0.84673055646483 0.96246176817225 0.88169768325956 1.0810737839979 1.039641574955 1.0403476231764 1.0131858028133 1.2438647424946 0.6072339458235 0.83702330540764 0.99476726437563 0.98883110491483 1.0903842687302 0.83615405841397 0.90923329509731 0.4963428381166 0.61687428173419 0.97357914069246 0.67498417253029 0.36644767124886 0.74301708654106 1.3612126423099 0.56411575854927 1.2119182615388 0.49732429388033 0.52604335123891 0.68378604307635 0.58185172279236 1.0535621809016 0.50821520966104 0.57132720875802 0.50536797330084 0.50380343843393 0.6101127646667 0.74669540290982 0.73896591665547 0.79340868713864 0.6485516136266 1.0869401509681 1.3187357842455 1.1594235911056 1.1721715166845 0.84591460532665 0.63594147930961 1.0070406138749 0.96904223040651 0.92081609388796 0.8330789394782 0.28911478839308 1.3013602682948 1.260382358094 1.1660875438818 0.36452872129697 0.86162362404522 0.56991865632299 0.51100808706191 0.78138581937322 0.78941971026245 1.0496780802332 0.98965002873042 0.5588171268427 1.3814073519348 1.2935886806805 1.344217862678 1.1043665774592 0.97337219101939 1.4211239300137 1.2363255976579 1.2689926296816 1.2290912153777 1.1056544146849 1.2278265476564 1.0526055690962 1.3341313531994 1.0646530485111 0.87940503668682 1.1074944845307 0.96589536906948 1.2553512877442 0.99833541204767 1.3093794380892 0.81583736722485 0.88977706692722 0.95678800108007 0.69451000516921 0.87873827479761 0.96346750764413 0.85882949146246 1.225