# vtk DataFile Version 3.0
d-2__ created by libgimli-v1.5.0-1-g5991b6ac
ASCII
DATASET UNSTRUCTURED_GRID
POINTS 3503 double
375.1578521782	-10.539151806402	0
374.30878561874	-11.333149474909	0
375.3080427115	-11.55073527979	0
353.15258822552	-10.422449633894	0
354.18292561154	-11.057857317938	0
354.09071294025	-10.152986335986	0
314.51658123431	-21.368484601131	0
314.96475377565	-20.187401839325	0
314.09486661769	-19.791134994325	0
335.06063641948	-18.727786604686	0
333.91590926067	-19.498034653476	0
334.91220138096	-19.749030751392	0
312.87716728938	-15.00604677148	0
313.69828752852	-15.580536085108	0
313.98359442208	-14.619871526021	0
341.70988577375	-28.660260789144	0
342	-30	0
343	-29.123588643481	0
348.7531633215	-17.546589094766	0
347.86234665953	-16.451218929466	0
347.86425349804	-17.846833147372	0
375.15001567568	-2.6543707282398	0
375.08920457871	-4.3757358784135	0
376.22037756121	-4.0797248193676	0
331.24701524002	-29.00972685821	0
331.5383179196	-27.800276696779	0
330.46657948895	-28.04094051305	0
337.48803825856	-27.051366115864	0
338.32343370468	-27.334799680269	0
338.02796277779	-26.445571565557	0
357.20605079121	-14.709569472276	0
357.85756660241	-13.654967184957	0
356.78162696934	-13.544870688863	0
328.54735744887	-23.256550472402	0
327.77170479073	-22.704596806248	0
327.40759358459	-23.530845980281	0
346.62961148435	-22.534259875623	0
345.7207320123	-21.54193898275	0
345.78582542797	-22.39470673296	0
347.28490189136	-26.096656943139	0
346.55078637646	-26.971375159464	0
347.59285754109	-27.19630273383	0
333.01506724416	-16.343217962281	0
333.95176015367	-16.823038042938	0
334.02850253057	-15.519019049605	0
341.11027567368	-27.864123774538	0
341.93773697254	-27.308539202209	0
348.23976421434	-26.422192246908	0
348.23606287066	-25.506374143487	0
340.7815083627	-22.561631757902	0
339.95527348683	-23.411233939364	0
341.08560404588	-23.767381049592	0
328.20142864825	-19.8594185078	0
327.41468444396	-20.437670481708	0
328.6128679825	-20.679263753271	0
344.63906255701	-27.131301422613	0
344.91507157142	-25.969027191901	0
343.75330397773	-26.247161011632	0
342.60533908547	-26.367001824738	0
341.59001971585	-26.354536308704	0
342.77127924898	-28.039077133929	0
343.87641950859	-28.123595788103	0
342.98714802434	-24.466235767669	0
343.99938007848	-23.757278462125	0
342.82766487631	-23.364445574604	0
343.3902395715	-27.213238459131	0
344	-30	0
344.47000762137	-29.026773541979	0
345.4283684451	-28.527152251101	0
345.03125	-30	0
342.10804674891	-25.516345982921	0
343.09257647957	-25.476143512093	0
340.2340649423	-27.389127803649	0
341	-30	0
345.56872553926	-26.738162001498	0
346.41565706211	-25.356068680999	0
344.65932317038	-24.802127402381	0
341.28276686316	-24.825461740858	0
340.76171399362	-25.767221706505	0
340.5	-28.8771229825	0
340	-30	0
341.86534410235	-23.171226400586	0
342.02816341031	-24.13915449407	0
345.86814224652	-27.661654107097	0
346.75696928487	-27.857963937904	0
339.71109539013	-24.570917083129	0
339	-30	0
339.5	-29.104597936777	0
347.09375	-30	0
348.125	-30	0
347.94100745271	-28.986442887947	0
346.11461824861	-29.104624705985	0
338.99376444428	-23.814330701581	0
339.11289562393	-25.324175349654	0
339.80007322831	-26.056412468667	0
338.16751139807	-28.66810303358	0
346.93840036055	-28.74994701989	0
348.27804492159	-28.013017481755	0
345.67470620743	-24.64403880213	0
338.21670176545	-24.974779378868	0
338.25762748325	-25.727537191637	0
342.51081497097	-22.449493860525	0
341.77753932575	-21.8171669437	0
346.00484330547	-23.221435925561	0
345.08565052908	-23.802012599889	0
343.52096580134	-22.493405775632	0
343.07764533576	-21.050837360621	0
339.03989993998	-20.139486053589	0
338.05817368029	-21.216453195392	0
339.57790204509	-20.912859002522	0
347.59468273575	-24.852640236576	0
339.75341858333	-22.388374595877	0
340.49294446791	-21.137022665224	0
339.32785194185	-27.993107166835	0
339.44621372508	-26.908666170907	0
349.32293879219	-28.919860490172	0
350.1875	-30	0
350.38733685352	-28.953973165014	0
346.67900715046	-24.340483727014	0
349.2451130525	-26.505912038336	0
344.79971102888	-22.731845314405	0
350.48339173151	-25.804360955916	0
349.06582591228	-25.67780995318	0
346.99172996874	-23.389488736344	0
348.23524534544	-24.087130531198	0
348.87668944105	-24.851901763769	0
349.83477727934	-25.067106214402	0
339.00599169901	-21.661504806153	0
338.68805901562	-22.736146736974	0
341.6699128258	-20.396834493094	0
343.00311025676	-20.002223728293	0
337.64588799407	-22.601008203293	0
337.97354771478	-23.599518077485	0
336.5696025807	-22.61171969468	0
344.01022177956	-20.303674235911	0
340.54565406524	-19.914996930877	0
337.10364236907	-24.462448472632	0
336.20853425439	-23.62568946289	0
342.68199931048	-17.840113055478	0
341.22406946366	-18.187754786985	0
342.34580285034	-19.1818012753	0
335.14053768741	-22.674110553206	0
337.12375843727	-21.688997464684	0
336.33717320029	-25.697849369013	0
336.05041231577	-24.691980125629	0
335.82963242213	-22.06026340325	0
334.93358930147	-23.981495255923	0
334.09073184732	-23.178006286527	0
336.33951510241	-21.088377353552	0
334.06417241352	-21.777153276644	0
332.94057652017	-22.995946034449	0
336	-30	0
338	-30	0
337	-29.19774860681	0
348.74329295316	-23.420805856725	0
348.6792793684	-22.585339995972	0
347.95812535801	-23.128209221327	0
350.3501812348	-24.197671888416	0
349.45939240383	-27.707232445869	0
351.734375	-29.144248289179	0
352.84882294577	-27.889530040813	0
351.21875	-28.288496578358	0
351.34132639573	-24.395632880694	0
351.20928807154	-27.311279310884	0
351.88182217129	-26.602236998598	0
349.21517795501	-16.794133156697	0
350.32058079816	-17.10394245671	0
350.10490030143	-16.258997873637	0
345.48526666967	-19.459093843261	0
345.58821240599	-18.247993180035	0
344.35288139517	-19.158887816403	0
346.65649586073	-19.484436504778	0
346.25126390996	-20.541681308597	0
347.61936264003	-20.459777442039	0
338.81243336677	-26.237938671526	0
337.25429811215	-26.200727719844	0
337.48612896069	-25.391990373751	0
344.3789271865	-21.440339481862	0
347.84391578498	-19.275149678956	0
347.09871655868	-18.52029622732	0
337.60176175697	-27.926173010404	0
336.67505358025	-27.817799716283	0
347.86829711434	-22.189009469588	0
348.66449579864	-21.682814900134	0
347.05594685479	-21.709163303783	0
345.11942480936	-20.572008845279	0
349.70082943376	-23.423140079513	0
335.314284051	-25.479440285085	0
334.5	-28.976922582051	0
334.33986495096	-27.849516635116	0
333.34910807472	-27.740283311285	0
336.53572602175	-26.855611412651	0
335.54331808192	-26.911276082219	0
335.81738102898	-28.747995168995	0
333.93056661948	-24.189841038622	0
334.26590313415	-25.217182746704	0
335.33231591928	-27.881566878836	0
343.34799546399	-19.052385492896	0
347.86639712078	-21.306749084285	0
332.44066622941	-25.866570505767	0
331.52450997757	-25.650873015122	0
331.75543805194	-26.723521764444	0
332.96839617983	-23.980280207154	0
331.88423136108	-24.781121204831	0
333.22370725625	-24.931334333518	0
334.54274587168	-26.337090073084	0
348.37824841791	-19.954693469505	0
348.97717262232	-19.284064923524	0
343.87964211248	-16.305048663342	0
344.02122269338	-17.494228580989	0
344.5770577457	-16.833546828862	0
335.36702793844	-21.261729140618	0
334.35728045579	-20.613703982693	0
332.76716750013	-20.831752502658	0
331.97935942445	-22.7427623764	0
331.37603452391	-23.532723979393	0
330.45030150643	-23.147364895966	0
329.85375531869	-23.953352419898	0
329.62823670155	-24.971853382768	0
330.72649853393	-24.524773576581	0
333.28642636179	-26.745495841665	0
334	-30	0
332.89841818658	-28.629333215161	0
333	-30	0
335	-30	0
351.1273795905	-22.886616896716	0
349.71557672976	-13.62730617622	0
349.79927624224	-15.266743088145	0
350.74835931206	-13.720487022207	0
348.5970701767	-20.790999731451	0
344.3667220018	-18.290761620276	0
343.49995917222	-18.193526018748	0
339.89448278604	-18.879573750623	0
341.31155237406	-19.218968735785	0
344.92337033645	-17.624445414311	0
336.05068363238	-18.436618124115	0
335.86757826531	-19.371073030239	0
336.74969929197	-19.083232889388	0
331.77701714214	-20.558836602387	0
332.59541827209	-19.522254411682	0
331.6194112034	-19.298349428515	0
337.5749989037	-20.287490296183	0
337.55751687101	-18.626702264589	0
337.34493491814	-17.714790994284	0
329.46044245548	-22.987170320251	0
328.98001713547	-24.018429056599	0
330.77827746474	-26.224462347356	0
343.0048142347	-16.324415146777	0
336.62798969546	-20.003111265311	0
335.69751075461	-20.337636024226	0
332.70858064783	-21.925490941256	0
331.53111948511	-21.855563849241	0
329.84415997071	-25.927850793118	0
328.95499476284	-21.890591080509	0
328.62855296423	-24.954454290973	0
332.51290758714	-27.293603906812	0
330.15948975148	-21.806002538944	0
330.045090233	-26.914273864359	0
329.14845038392	-27.891882928412	0
330.87360921817	-21.047441701583	0
349.92047092515	-22.113625364204	0
350.84628384118	-15.532137452466	0
351.40174782903	-16.840228582855	0
346.91459909339	-17.475678412379	0
345.43954356407	-16.873185144727	0
341.9604159402	-16.112852819254	0
342.40979727961	-15.146631919165	0
343.76785714286	-14.975595238095	0
343.22758013134	-14.111040438175	0
336.09704691682	-15.119919281858	0
337.27778470988	-15.464703559456	0
336.71577863016	-14.370552244331	0
329.10049411687	-26.566219812261	0
330	-30	0
332	-30	0
329.50754699687	-20.476833484984	0
330.91122877749	-20.006304858785	0
329.51848443013	-19.265692592857	0
327.66598256562	-19.008729177056	0
326.46803021755	-20.198531267227	0
348.70195976579	-18.428079682461	0
346.71599330899	-16.341324629915	0
344.64764407248	-15.885677865779	0
344.98160547133	-14.682542506669	0
349.63137339717	-17.638210725982	0
348.78697584748	-15.643448532263	0
339.37208021104	-18.143939206744	0
338.6395644571	-19.049087909466	0
344.16260929477	-13.950514570436	0
335.32141449427	-15.70538852538	0
340.06553628742	-11.539787515711	0
340.81850540584	-12.101186450115	0
340.38375806882	-10.656121201605	0
333.90555425581	-18.246885988841	0
334.82969977222	-17.403419764475	0
336.42152784049	-17.559573016758	0
[...]
CELL_DATA 6713
SCALARS Coverage double 1
LOOKUP_TABLE default
0.26457651631625 0.2808318081632 -0.39250391850454 -0.31415656262639 -0.13303196427692 -0.61192705974511 -0.22941219380145 0.56484988447429 -0.62492555580496 -0.54991708526131 -0.016599359498286 -0.45598375268404 -0.36087243758032 -0.52647338645116 -0.20509779494454 -0.57136049876873 -0.50388390033032 -0.40270362931465 -0.3544082675051 -0.51667091308222 -0.52910135722898 -0.58460593381353 -0.42417638176269 -0.55567080686157 -0.61398665713977 -0.58858077678744 -0.52715465187338 -0.58801785796756 -0.62062335671344 -0.60825958830535 -0.5320940124801 -0.46661976438235 -0.54784176349961 -0.61995926240182 -0.55949273360795 -0.56905832071088 -0.55434604970007 -0.52392204279214 -0.56305407585198 -0.50327066709161 -0.46228024796644 -0.49771786666713 -0.4790800642554 -0.62739295340101 -0.48406831087809 -0.50217143556402 -0.41503206356714 -0.56459693751272 -0.53985841171674 -0.55046878206892 -0.49634329621599 -0.52419817745544 -0.46022645786698 -0.50239798488753 -0.47660358829783 -0.63364731817487 -0.58781426168276 -0.61515720170783 -0.62377498844897 -0.62509394664642 -0.48305862597053 -0.58028623471073 -0.51884963100168 -0.41770566001853 -0.43812613853303 -0.54197655587617 -0.58085451796094 -0.48612641634619 -0.62523474334398 -0.58069235025377 -0.47315625801912 -0.45764880002521 -0.44605367692697 -0.42496540534789 -0.44340240158612 -0.4018707617014 -0.49583586801186 -0.43700596735056 -0.37450478715344 -0.42431479318258 -0.3950621913046 -0.34972597192069 -0.32481944124917 -0.38812723701831 -0.37566348505106 -0.38533337331102 -0.35083434399591 -0.46673937332039 -0.43422298353151 -0.48402602473033 -0.35052063746168 -0.58189003330162 -0.56276865356479 -0.48729393297516 -0.53584968894419 -0.5086521654765 -0.58763037476871 -0.54151516611334 -0.55108518120993 -0.58270312921471 -0.5920389353948 -0.62347590713535 -0.5074939203367 -0.55823330464069 -0.59438167649423 -0.45829784934392 -0.54356761217721 -0.40381770244317 -0.51099739034739 -0.42786588637348 -0.5262864945799 -0.51144621732361 -0.54625683515016 -0.50310187534607 -0.4814535674397 -0.48349855041906 -0.39496969644259 -0.43504265428695 -0.39435199779878 -0.3745904220444 -0.3595162311201 -0.30467615302213 -0.41504494390754 -0.41701709278486 -0.35521636654579 -0.41560341076733 -0.39664738779522 -0.45699289797256 -0.30406600577665 -0.30880744207926 -0.37738546977977 -0.41777530072536 -0.45637148314367 -0.4619140081491 -0.2449999130196 -0.42889393858499 -0.37053344916681 -0.39074903101979 -0.42764951951288 -0.49583370325636 -0.31083111744487 -0.40417794670752 -0.44513816853767 -0.37582055752809 -0.4240419609176 -0.64181929670285 -0.40041655130299 -0.47353162143205 -0.47521242696017 -0.48484919876535 -0.55168501661846 -0.60802290391815 -0.47599709265954 -0.48724297723381 -0.54185768471317 -0.46413230144564 -0.2065378937143 -0.26671765717965 -0.30356477888539 -0.4211207005775 -0.50686803568141 -0.46312324072641 -0.52928397020327 -0.52790053483127 -0.5419216665398 -0.56207001723863 -0.52550786433957 -0.62888334795364 -0.46836551360832 -0.51478033318035 -0.39395668467627 -0.35998598599789 -0.43754367783851 -0.4016315451075 -0.47373979140717 -0.45994140828865 -0.45058966915202 -0.42646586137745 -0.27746136237426 -0.34714001491974 -0.46715285718454 -0.58607106532578 -0.58392273845128 -0.57443590394038 -0.38479598369898 -0.3173910549871 -0.44832651672232 -0.38498162226778 -0.36982294530572 -0.35708150027956 -0.39862603975423 -0.36100948319636 -0.29024064234109 -0.32614294994234 -0.36026645413967 -0.38231723403866 -0.43820905534726 -0.41736425714319 -0.49233929675484 -0.61306822358212 -0.60151586724322 -0.63235862273426 -0.60034935527377 -0.54188560383281 -0.56846445157488 -0.60575928667594 -0.60911158147194 -0.31799291785888 -0.29574917620356 -0.44229305789128 -0.50344181678912 -0.41988480303897 -0.46113342517621 -0.53691464452728 -0.51724878010225 -0.49156406281477 -0.63512009087748 -0.57082760448855 -0.60293196663493 -0.54361434895073 -0.54650785896869 -0.5223436487558 -0.54323502903792 -0.50916322169007 -0.49821200636212 -0.48814560459153 -0.49340517072186 -0.53677897223754 -0.56909106160581 -0.57910028688936 -0.49375339804671 -0.32716296197652 -0.28095381106358 -0.3557028395179 -0.35447226005677 -0.55295372485931 -0.49597726397131 -0.32470922539923 -0.57148725801927 -0.30044489319698 -0.3335376884004 -0.32996074264476 -0.29114134711844 -0.2035118380915 -0.27212232296018 -0.25111086428451 -0.39617277958515 -0.46455951655341 -0.3724788626186 -0.37565128528409 -0.49271394370632 -0.54051341880317 -0.45808705912143 -0.49752131861255 -0.45746469190372 -0.48702941870273 -0.45200351509643 -0.5027563711825 -0.48372602903702 -0.53711039264419 -0.53506230021382 -0.52938538952232 -0.52380716221878 -0.61133048101759 -0.53927317424704 -0.57254053482856 -0.65295869238827 -0.64319655297916 -0.4265054892364 -0.047997188430987 -0.29532334613328 -0.31386788561461 -0.27716311037915 -0.28297749960378 -0.25811539832857 -0.24851883649823 -0.25664808318383 -0.32826862716701 -0.26749669660674 -0.22100345050634 -0.29395933959074 -0.3417016114965 -0.35467176650544 -0.27265754726855 -0.46891406112635 -0.50019273742414 -0.53014393204558 -0.52612688992473 -0.32930412870276 -0.64507979226806 -0.2642852075856 -0.21440433713458 -0.3368598639452 -0.31025468627227 -0.27361280908073 -0.33848440262822 -0.41944557421289 -0.47787038432978 -0.52988101570789 -0.43650943119249 -0.5036548587462 -0.53081889969025 -0.58765429200899 -0.47705004753793 -0.46846866573317 -0.45489259127569 -0.42978449094261 -0.42735384994654 -0.60130360746413 -0.38899932848543 -0.43239920107622 -0.38592383683129 -0.39647896457243 -0.65202301772467 -0.61285022472826 -0.63969214908918 -0.58603430533774 -0.56398387061966 -0.39713624224143 -0.18405813729192 -0.24657162903453 -0.23182535110366 -0.28007680439249 -0.28324499079004 -0.16444844852241 -0.097556494909443 -0.32567983512721 -0.11687298018284 -0.5190971238675 -0.55246542239897 -0.57827539032265 -0.5832291136972 -0.55304392732174 -0.66230258890797 -0.34581086630727 -0.35078475248377 -0.34548946580791 -0.38783447794343 -0.38476082845697 -0.33747744807222 -0.26471726481707 -0.24955555819408 -0.2770683767684 -0.22728759720607 -0.21002028057092 -0.24426126392584 -0.12273225865644 -0.24577347753696 -0.18629566459889 -0.20375069829626 -0.29902909066224 -0.32856497916803 -0.35640073926238 -0.29597844465159 -0.35435221681778 -0.33785469276976 -0.37891297545745 -0.34574957498773 -0.26084175474517 -0.32296093707466 -0.34279320940148 -0.29893994169934 -0.076652134147868 -0.19072864819603 -0.31208398916985 -0.27617312210327 0.20073868054883 -0.30202982571318 -0.26211356241297 -0.30992134580304 -0.23737207371998 -0.26841647980982 -0.27788526808689 -0.27942564481234 -0.38378050729208 -0.36317943207681 -0.34336815501044 -0.36605237293442 -0.33177574863191 -0.3297536034991 -0.30244491068473 -0.3152856223526 -0.38979165656739 -0.41627322870714 -0.11299481554 0.021531753966819 -0.16754093491998 -0.14726107998839 -0.26000097590885 -0.30823665262418 -0.29720282775643 -0.34395687205974 -0.28515573763151 -0.24846525748888 -0.31209985162427 -0.3129490783891 -0.24658839250944 -0.34074175227922 -0.37461313458725 -0.41308387284367 -0.15428171545026 -0.087684883339255 -0.1508818642262 -0.18130674187077 -0.092718600920947 -0.096953776156063 -0.1722114860277 -0.21279924925863 -0.23565505567845 -0.29602139116781 -0.31656135414203 -0.28226238296371 -0.25837051451154 -0.24150492259437 -0.22524320809819 -0.19497706243365 -0.12418832657059 -0.22139847748539 0.01240407759586 -0.18167326067791 -0.14569456098145 -0.27598215150726 -0.39832463379396 -0.3010576924954 -0.30278698362695 -0.31895330023386 -0.1523354604359 0.22343595619691 -0.13285454071467 -0.16498436811696 -0.23311336788586 -0.23092181471115 -0.19318157398198 -0.18370326612341 -0.23785349543712 -0.25549984392714 -0.15567163137762 -0.19555020841365 -0.22995591914449 -0.24217844071751 -0.27239582999172 -0.25108605886549 -0.11674490541912 -0.26268747091145 -0.23434720643688 -0.2582433639055 -0.13092049563235 -0.16645521393911 -0.28471568794782 -0.27757156028247 -0.29900276473786 -0.32431284984165 -0.24188010386387 -0.27265316017393 -0.045415683620608 0.092191561064733 -0.18299538966913 -0.099009782334434 -0.25656389073494 -0.22354722264617 0.055584581283622 0.25420051920581 -0.37159267772979 -0.28184748047905 -0.29044837240434 0.2348317813679 -0.0052026490751468 -0.035171004885234 -0.17041463843717 0.048520145527001 -0.28248438174375 -0.30692448916595 -0.24095179645849 -0.33888959972253 -0.20964169090991 -0.22014496129958 -0.092025334439779 -0.058029066112504 -0.08190366591053 -0.020113024742179 -0.037973241116547 0.03701177354703 -0.13623674000575 -0.0066908660876205 -0.029586579129744 -0.077126078491621 -0.199777900793 -0.16996243218823 -0.2408282838663 -0.16238908288201 -0.22420371900309 -0.14162689751785 -0.04796749301825 0.40177942909871 0.09506426495424 0.064818570319885 0.32570565348137 -0.1123651272289 0.34140927661091 -0.16223299237172 -0.070281491493789 -0.16502103877812 0.0078617388256166 -0.19951650741872 0.004142219431252 -0.052897630364336 0.3664430499277 -0.10315042479521 -0.21422049549067 -0.22288517090017 0.17835193908534 0.2897131413591 -0.12859852054347 -0.25915504835874 -0.21181479474987 -0.24410382738761 -0.23622394946484 -0.22390812883736 -0.077108716398258 0.1777501800873 0.13758932855956 -0.12537628762368 0.059381364490039 0.090025706220478 -0.033222551674622 0.018284155645667 0.0095902184124146 0.021580819579557 0.3278782199708 -0.09887788607807 -0.18663063515135 -0.17528104321862 -0.29306353542398 -0.25912645096572 -0.2973998150337 -0.30493513672255 0.30457284156129 0.24908536336215 0.32989269382597 0.45264525516816 0.24149231563179 0.042338825481191 0.22877316022672 0.40833682469977 0.31252353049489 0.16199514867523 0.21385228745638 0.25252863090964 0.11095296667823 0.15925439366932 0.23548183441447 0.3396297832166 0.40070247757204 0.36670234634185 0.45760076806138 0.37583154220377 0.44137866124077 -0.19155263424787 0.45889437223532 -0.093735865655022 -0.034915137491993 0.00075961209307957 -0.044963945544174 0.14144858383326 0.26919105796719 0.10408661493837 0.38977078859914 0.41298719950584 -0.058044292010612 0.039520396642536 -0.1011284157839 -0.031419281696261 0.15630938615193 0.19204761330786 -0.063476927724389 -0.015937686920992 0.13869241276796 0.042909932009599 0.12712295433676 0.12612945765158 0.028720740973024 0.061530129417312 0.015130715939245 0.16500947385594 0.12859927744074 0.098761378589571 -0.13907582675149 0.061550339180378 0.1540746192611 0.26772702985899 0.14304187761924 0.26679080808567 -0.1703190871634 -0.23709274294431 -0.032555610077044 -0.0060040256682897 -0.24052853893314 -0.25619288345583 -0.18469167245993 -0.091902542017539 -0.21594128528623 -0.2685733392995 -0.2223801935925 -0.25360756830977 -0.29080992583184 -0.27562552767041 -0.12860404018541 -0.24115875052378 -0.29482110782262 -0.33165629971938 -0.25565837884448 -0.27484688750406 -0.32737171076065 -0.32703693199628 -0.15712923625881 -0.10718288067668 -0.1872457351684 -0.10640367901828 -0.081918269427345 0.0029533586950352 0.029591213308341 -0.18920403423065 -0.14204538103776 -0.42185231344835 -0.27782995087508 -0.29907504634197 -0.01912088819151 0.039971545919464 0.19466688917181 0.27363516197668 0.40610402825012 0.15658160246609 -0.26068446708121 -0.47724249007817 0.050191177557855 0.15595228888908 -0.1762958929105 -0.02629051789904 0.41173164005771 0.4728821192201 0.27497560786798 0.42589891113365 0.2931488876236 0.15175876040727 0.25000620250774 0.33428783852813 0.38471040456451 0.16290281057234 0.20701257402677 -0.025423168094749 0.23889655769288 0.060103276460318 0.35136350475035 -0.01520941490575 0.46729815320215 0.37814141170343 -0.13159967731652 -0.012437632008187 -0.22455350893301 -0.17712069437704 0.10153600323958 0.011458244240911 0.36020068974294 0.42641685899989 0.26123891616311 0.38813350121515 0.44320719618672 0.43062424017234 0.23321561123134 0.23627616488929 0.3092214562921 0.45605614301073 0.16148206697819 0.18180663986467 0.24285620054991 0.40057722852702 0.060313555764437 0.16311410977143 0.2269410298524 0.43656944471946 0.17808962493011 0.1625731714197 0.23891559040619 0.27346733359457 0.19039963889938 0.078923540609713 0.28995850875907 0.39088175109826 0.26126394272319 0.17946647496249 0.38184206279562 0.30184596901922 0.33004554630647 0.37439857115174 0.45497474057151 0.3072999472748 0.31064414706267 0.38219957323122 0.37296170621169 0.43284907630843 0.38884853529498 0.42728444284662 0.36280949579173 0.34315896067705 0.35579785147018 0.43064477516479 0.36081492190147 0.36664236473172 0.16037501692977 0.27830639395926 0.087719237575796 0.12556980897449 0.16770416902522 -0.092068402746124 0.25319412454648 0.18885568603059 0.066998545253766 0.023133615531163 0.29113313841952 0.13996019288005 0.36717528691178 0.41631801933684 0.078971979335369 0.15135967435795 0.049033231903325 0.060529463405193 0.17888392994764 0.080979924058076 -0.0070783721512906 0.079900459152208 0.29224313434572 0.26977192772431 0.48726484566443 0.48402892840464 -0.10678357684623 -0.12677460806469 0.33356819557177 0.21865039901596 0.087950635185891 0.25275433731617 0.2805511975668 0.32442293960502 0.3669501460939 0.33025149024494 0.38038684718093 0.45812879246208 0.31627970146399 0.49611111709688 0.28618996545289 0.34997763079299 0.31818330359521 0.42813929776705 0.41321813453529 0.46737935658648 -0.14492404350105 0.0059040335973619 -0.096511507735108 -0.044366284591466 -0.12786989637464 -0.1629147301984 -0.10855322866923 -0.19580088754228 -0.055983352976982 -0.29245164027485 0.41595570512079 0.42894459041465 0.44335669368277 0.43647664277779 0.46815554190984 0.46382824380523 0.43779344094381 0.42659399708964 0.42910772673773 0.49887027429504 -0.19276806040146 0.37128433214751 0.48833834564476 -0.27185065955059 0.46881238006596 0.44207808206216 0.44180550073179 0.49827840991991 -0.14742859956944 -0.063207873681347 -0.20004143326401 -0.17836409225646 0.0033753494521491 0.16974745762273 0.40038945561942 -0.12229750266569 0.35763197760283 0.42382955437958 0.39864091811394 0.39911075229702 0.46809781837866 0.42991863136253 0.39902576671439 0.51494509679936 0.39550370112056 0.41846282613088 0.43495981217307 0.31643432391155 0.46693851731584 0.44432645152702 0.43230021581663 0.40079682686483 0.16812833042121 -0.060321347071385 0.34225543594555 0.28897821538578 0.11066752748149 -0.055487144152484 -0.26430494090894 0.43541191336706 0.39405035888382 0.19844371930841 0.13831642807219 0.28339998229597 0.0051989314493445 -0.20149464545373 -0.053808531022195 0.32848765130193 -0.30445429760715 0.0056462201429339 -0.23926690726022 -0.20072985941824 -0.15632892545889 -0.21267690650917 0.20232128470099 -0.066146394388199 0.29587980827956 0.37524451181376 0.34635872182321 0.34626288510081 0.41774223698743 0.06288021048504 0.37813864753371 0.40592543192077 0.44038076779895 0.3754269608375 0.43576755796697 0.39873716765852 0.3977424116991 0.37118259213651 0.39377288061274 0.12190523314812 0.37633114523073 0.55408760937637 0.04024556636786 0.43659860178577 0.07682221960129 0.19782936775596 0.046886496007832 0.22087157405018 0.34507063953293 0.37958711031579 0.33787476823641 0.39666571312617 0.29914718801626 0.34687884454875 0.4096298328537 0.39130787280853 0.28860691491863 0.21472786700809 0.42087715399247 0.36943831883155 0.46579319061096 0.41676215741602 0.43901168068847 0.32175055022976 0.19942309124861 0.011468465615686 0.45180011697991 0.4173960424927 0.17658123999187 0.12758977804546 0.50089974263762 0.4516159481251 0.11745400736089 0.061970994554352 0.10987130734292 0.041710514933059 -0.023686286603838 0.07089821822356 -0.072685731061415 -0.067626642813839 -0.085204302640077 -0.11193965512351 0.67429011081241 -0.12999742911282 0.34818367659931 -0.0083765600247639 0.066455569451258 -0.25353630915857 0.24961053489387 0.42889176891849 0.43710136715587 -0.15867202441306 0.39322251191838 0.36342553907427 0.31093954387584 0.59390573099534 0.36650397975998 1.3656221287044 0.36101628579116 -0.032678478750199 -0.064167560425952 -0.048691816118655 -0.14488536729717 -0.19980199722873 -0.12205210944729 -0.22522569286842 -0.19535838893258 0.39221475193566 0.49315401563914 -0.12028245255338 -0.19929121734884 -0.25254943597278 -0.33444047407059 0.40861154730075 0.84893221206768 0.36728886859881 0.39316810616773 0.39523965706514 0.37618838274376 0.48094807393169 0.43658134464657 0.5052102424663 1.6996331400404 -0.20493573089163 -0.2408394387422 -0.15154258834965 -0.20593134593883 0.47150525161052 0.4990992193963 0.44778772165541 0.43967621256183 0.41356983902236 0.39435203522978 0.38522126895314 0.40794406697154 0.42230717621594 0.4638459204628 0.40585618061103 0.36300553051434 -0.24328950742867 -0.29049397349837 -0.21564302857994 -0.22548276652093 -0.2917075244903 -0.43410212380464 -0.17933438491011 -0.30431598086564 0.48139035846321 0.38535306557351 0.45388465332044 0.37458778155221 0.47115730078529 0.33835334995665 0.47211917870309 0.60648321187259 -0.22607001835491 0.40417356289425 0.45831670154019 0.95337589186647 0.54050947748766 0.50712299722644 -0.29259560011317 0.58287028977424 0.43113236494203 0.67363408858153 0.38260038411965 0.38385913033705 1.3542310943698 0.60541367774418 0.38702107464955 0.3937369897808 0.46663504362778 0.56729845096589 -0.18240530825388 -0.23914869958422 -0.21031970056767 -0.25305166586936 -0.0063159214903441 -0.28602307894251 0.43096735841035 0.47549639422346 0.38128000591033 0.44295075700225 0.32230305743407 0.36045979409322 0.45142437357201 0.38873904013287 0.41282580895553 0.36519062698149 0.39405230353285 0.39366013557591 0.38709155471871 0.42435763208732 0.40761437544841 0.40982985981592 0.41210925218046 -0.28254609393563 1.1449632265358 0.351738772517 0.36891519373336 0.40105928796147 -0.2666062261028 0.8565679743006 -0.24460170349639 -0.22720338731178 -0.31606917535975 -0.20658706998681 -0.26425923231887 -0.29457959422827 -0.66659418076038 -0.16687911569603 -0.19944179876143 -0.038820758654449 -0.14938001403876 0.31201311061324 -0.18666377533007 0.41428864924493 0.37463818515796 -0.159120196337 -0.25488536320119 -0.15315011600256 0.4356256888048 -0.067661486401648 0.29552014359652 0.37646446151426 0.44619982455969 0.44547527821649 0.21499344280621 0.17067145583081 0.2768562034821 0.28754107886523 0.46917600028559 1.5888402610109 0.48892451636911 0.85327447345436 0.78928386767665 0.76226532190667 -0.10774975125232 -0.22697135296629 0.38151370527446 0.43320083232438 0.74029088238023 0.39499458038076 0.43230298924573 0.41187201583492 0.42315500747322 0.37702954233878 0.48110130218937 0.40654555117763 1.2118104387257 0.39442460646378 0.49060758767581 0.21371387297162 1.0422895603736 1.1983116824903 1.6494905474903 0.39139449828296 0.011300848022535 -0.14928588013842 -0.32093255908636 0.44221167912214 0.030883755514207 0.34264324525074 0.38736509384847 -0.16267796633746 -0.10795275524835 -0.12707271102881 -0.072480799209838 -0.02702693380597 0.048113269193433 0.3230599340211 0.0027715636736064 0.27593607598209 -0.045500243071146 -0.032987976411756 -0.040455939890055 0.41800850189008 0.43291035035975 0.41349200051344 0.39807063718695 0.3867581728355 0.43989171998231 0.68164830372889 0.55669434655072 0.43715779474957 0.42699168662463 0.40367010983828 0.0424171077097 0.41634226258696 0.42892352129735 -0.59045339682529 -0.624574724971 -0.60922809244165 -0.62015660617978 -0.62531528661563 -0.61425576333289 -0.61373346525535 -0.62915882446868 -0.63219623813044 -0.62669405568415 -0.58441376629845 -0.65503240117247 -0.61897945776682 -0.54700190455864 -0.59292534232814 -0.5244190173473 -0.61030474556963 -0.59387676518535 -0.62770657153404 -0.63484124507329 -0.64285426055182 -0.64640120020125 -0.63881898824668 -0.53430357997916 -0.63377904863462 -0.61326524621727 -0.61879048610172 -0.65510733175797 -0.62413283984861 -0.56560357576647 -0.56298892167708 -0.55768882180543 -0.48662446184836 -0.39436562561783 -0.39452725935