# vtk DataFile Version 3.0
d-2__ created by libgimli-v1.5.0-1-g5991b6ac
ASCII
DATASET UNSTRUCTURED_GRID
POINTS 3657 double
345.44229486978	-0.74837874212955	0
345.32900534553	-1.6744382205138	0
346.27315136784	-1.057961291206	0
344.59170233857	-0.95294496871354	0
343.984375	0	0
343.43588322896	-1.2165390676052	0
299.76122519655	-5.4706348310107	0
299.34087204692	-4.718237460868	0
299.16406336622	-5.4849625288262	0
317.94402253704	-16.117862526335	0
318.670381701	-15.214569780164	0
317.81509922054	-15.040089012313	0
283.36274880074	-1.0567988653316	0
282.68784738841	-1.7380274181028	0
283.44497196825	-2.3009382185008	0
344.95884860971	-17.155853965959	0
345.00189286579	-18.316447912617	0
345.96192029188	-17.87797639214	0
281.43677466167	-0.92110100650374	0
282.03125	0	0
281.015625	0	0
280	0	0
280.41127965573	-0.9421429072827	0
329.7633624357	-20.65547099239	0
330.36441152881	-21.311381866429	0
330.33318665762	-19.807930047872	0
284.5260956348	-1.319157057364	0
284.0625	0	0
315.49162498452	-12.002072876998	0
316.97654780196	-12.105662166119	0
316.5625	-11	0
283.046875	0	0
285.078125	0	0
285.72131075614	-0.99636975715166	0
288.63418787203	-1.3564433485024	0
288.125	0	0
287.42061925079	-1.0175209405498	0
326.15059896955	-0.83638185996054	0
326.71875	0	0
325.703125	0	0
287.109375	0	0
342.96875	0	0
289.80633080049	-1.0191486050846	0
290.15625	0	0
289.140625	0	0
290.68015202013	-0.80614696995117	0
342.439939269	-0.77372979065904	0
341.953125	0	0
294.7917512114	-2.3571539485882	0
295.79434583098	-1.2657133500624	0
294.57175210483	-1.0125758054599	0
286.57774245334	-0.74332885046234	0
286.09375	0	0
375.06330322939	-11.862652490382	0
375.625	-11	0
374.53125	-11	0
299.81792001487	-2.7687710972074	0
300.35824277219	-1.5280986886601	0
298.95360533278	-1.2959834405783	0
360.70875358381	-0.82976637636588	0
361.25	0	0
360.234375	0	0
289.63261167942	-2.0655042685332	0
288.80078080915	-3.0075714114845	0
290.33348039983	-3.0856346813192	0
292.1875	0	0
291.66177867662	-1.1758790470752	0
292.84257566637	-0.95384751002818	0
327.734375	0	0
327.15677655948	-1.2420290835978	0
295.234375	0	0
296.25	0	0
293.703793213	-0.7347464639354	0
294.21875	0	0
293.203125	0	0
331.796875	0	0
331.14911268892	-1.0112724486652	0
332.27045847464	-1.3019914071649	0
297.265625	0	0
296.92268942844	-0.96579372228859	0
366.328125	0	0
365.68526584955	-1.0168230002327	0
366.80985691506	-1.3013979285909	0
297.82039198297	-0.81017914601997	0
302.34375	0	0
301.57204575176	-1.1813526449838	0
302.90439786597	-1.2781792534447	0
303.03946030444	-2.4927857838668	0
303.95631468645	-2.0103375772584	0
299.296875	0	0
299.92646590323	-0.71544893592362	0
301.328125	0	0
303.359375	0	0
304.9419733042	-1.1852931133462	0
305.0857178372	-2.595837109584	0
300.89143289319	-3.7268148991359	0
301.18130801558	-2.4850213186501	0
308.4375	0	0
307.421875	0	0
307.88636847216	-1.2804285049225	0
303.90443400911	-0.90844470352803	0
304.375	0	0
311.484375	0	0
310.46875	0	0
310.97916635872	-0.91484377257296	0
305.90155464319	-0.80374303953901	0
306.76413948175	-0.99660296096057	0
306.40625	0	0
309.95377404698	-1.2412268550203	0
308.91863537775	-2.0557543429645	0
309.96104860229	-2.6124468057956	0
313.90367863118	-1.7674321317122	0
314.9100756932	-2.6069380991953	0
314.98285174468	-1.1339475417805	0
300.3125	0	0
300.70059914012	-0.69277351369531	0
308.92930186082	-0.92510983616046	0
362.265625	0	0
361.70597731837	-1.2335821556153	0
398.49022603627	-0.95118023058431	0
399.29731374602	-1.7010172350047	0
399.3730634584	-0.76352964314078	0
328.23418802963	-2.1327827830647	0
327.04995863858	-2.7179061034744	0
328.10932555858	-3.6769796554015	0
321.640625	0	0
322.33546928997	-1.3486425991868	0
322.65625	0	0
309.453125	0	0
332.8125	0	0
333.31758611449	-0.93188893676145	0
312.5	0	0
312.01421030809	-1.2609257298604	0
326.55607766895	-20.9512076901	0
326.81415844587	-19.868366818926	0
325.63619827025	-20.210354461867	0
336.17046440241	-1.0390520563907	0
337.34258894317	-1.3162439101954	0
336.875	0	0
313.14627232711	-0.9858014561878	0
313.515625	0	0
348.046875	0	0
347.03125	0	0
347.47842596707	-1.3536437887423	0
317.578125	0	0
316.84709983661	-1.0430904766166	0
318.02181404601	-1.3234341962196	0
314.01733336614	-0.78943271115211	0
349.46689326707	-1.7815223802654	0
350.35731459447	-2.6581058114569	0
350.5200979594	-1.1597711369561	0
335.859375	0	0
359.41407264463	-1.8699415881291	0
360.53996200444	-1.9482839336275	0
359.82137193532	-0.93855731580724	0
316.5625	0	0
367.34375	0	0
367.85317326207	-0.93122294713196	0
319.08454051129	-0.94286135512048	0
318.59375	0	0
371.88626846882	-2.6968843954815	0
371.87542815977	-1.2838748586173	0
370.86514122372	-2.200509712623	0
375.46875	0	0
374.453125	0	0
374.94232791229	-0.86918306114037	0
321.17906221184	-0.94558077109151	0
370.71183560202	-1.0271336855825	0
371.40625	0	0
325.22811602114	-0.93465651796221	0
324.67651814373	-1.8567143828987	0
325.90248108044	-1.9726689437385	0
380.94606292663	-1.0145910844777	0
381.5625	0	0
380.546875	0	0
320.625	0	0
370.390625	0	0
319.609375	0	0
375.83148837918	-1.0589786024279	0
376.484375	0	0
315.98217726169	-0.80386565646105	0
355.54630115957	-1.8978868106949	0
355.66831844253	-0.8516199984988	0
354.7915485506	-1.0389526873815	0
391.43769329041	-1.3685343691871	0
392.39762415016	-2.671752990974	0
392.83453008498	-1.5216676622959	0
324.6875	0	0
397.35851514616	-1.2360394047077	0
396.31667152182	-0.90780670180088	0
396.34070070688	-1.9999023261677	0
328.24006607361	-0.93308872076594	0
342.28158094297	-1.7240929943449	0
341.55256940744	-0.85011890749315	0
341.06754399151	-1.7179361165707	0
388.671875	0	0
388.17791473617	-1.3291634887691	0
389.34371481886	-1.0460019654051	0
402.890625	0	0
403.33811639252	-0.77178462276994	0
403.90625	0	0
329.31410410572	-1.2481798346352	0
329.765625	0	0
328.75	0	0
344.34765766081	-1.9427576276096	0
330.78125	0	0
330.2829028651	-0.82604976340485	0
401.875	0	0
402.40905146162	-0.86794579418971	0
403.10998853142	-1.7319883917638	0
404.32638176245	-1.2094598569601	0
334.34540823616	-1.193627013076	0
334.84375	0	0
333.828125	0	0
337.890625	0	0
335.31074923823	-0.81260092842821	0
322.12606817958	-2.747428270918	0
323.01455416532	-2.4237991402218	0
282.4049690185	-0.92355447444783	0
339.65368206794	-1.4042677681892	0
339.921875	0	0
338.90625	0	0
340.9375	0	0
323.29384017222	-0.79492433900009	0
323.671875	0	0
338.43924186568	-0.97267054631683	0
282.38392357815	-6.71250951682	0
281.26245920604	-6.0367604846526	0
281.56707918385	-7.3699766921132	0
340.62722728265	-0.80082810695497	0
386.25120942139	-1.8326020882457	0
385.14647285928	-1.1976671606389	0
385.22028570604	-2.8681700844013	0
319.06614109448	-2.1064570450347	0
320.12214992303	-1.2712312789862	0
345	0	0
346.015625	0	0
329.51444640714	-2.8723900939136	0
349.0625	0	0
348.68103475871	-1.0359341979066	0
290.60609556643	-1.7812278864788	0
352.41618889465	-1.1040378347062	0
353.63697562636	-1.3686659810474	0
353.125	0	0
349.56500329222	-0.8071147964766	0
287.5241310137	-2.2825959640523	0
286.52602258735	-1.6878010734062	0
352.109375	0	0
357.85896884212	-1.0894039546186	0
358.203125	0	0
357.1875	0	0
354.140625	0	0
291.171875	0	0
362.76363571576	-2.1438867015532	0
363.84510734239	-1.265641009858	0
362.77316532671	-0.93584481449524	0
355.15625	0	0
356.171875	0	0
356.66338009694	-1.3050280301086	0
363.28125	0	0
364.0483020738	-2.9760432078484	0
351.52975008536	-0.83592526291958	0
298.28125	0	0
364.296875	0	0
296.73411577278	-1.890345088882	0
376.08783455397	-2.0943975896206	0
376.89510909504	-2.9636161185146	0
376.98387981532	-1.3228478356995	0
365.3125	0	0
364.81660829759	-0.83483331379845	0
293.66760992073	-1.688906362786	0
377.5	0	0
359.21875	0	0
374.16302830933	-21.681728779496	0
373.16950471549	-21.077898078595	0
373.41703559905	-22.673853022767	0
305.390625	0	0
368.359375	0	0
369.84879523527	-0.8080878435019	0
368.88427296546	-1.1915043832017	0
369.375	0	0
373.4375	0	0
372.421875	0	0
372.91597465367	-0.91470765604117	0
378.07197911368	-2.1653898908286	0
379.32585848071	-2.8892023014143	0
379.10182264516	-1.2513716382475	0
396.796875	0	0
395.78125	0	0
297.6819882983	-1.7537862860515	0
378.03190167421	-0.95079486993347	0
382.09592341585	-1.3016374345833	0
378.515625	0	0
306.0128301459	-1.7836754752795	0
312.1076536951	-2.7773617452943	0
312.92080930885	-1.9828642166321	0
382.578125	0	0
383.24557447303	-1.0200064603132	0
383.59375	0	0
314.53125	0	0
315.546875	0	0
380.06651581122	-0.82915011188221	0
310.98463786606	-2.0329865368378	0
387.65625	0	0
387.02008393172	-1.0242957795292	0
316.04069224822	-2.7976870744584	0
315.95436770247	-1.7883514942787	0
386.640625	0	0
386.13570223047	-0.8228727433002	0
389.6875	0	0
394.00724165344	-1.167688430739	0
395.31656721188	-1.2555292491887	0
394.765625	0	0
391.71875	0	0
392.37338989667	-0.73141690904044	0
390.2649930736	-0.8743914413915	0
384.13052220759	-0.82374906212652	0
330.40834036376	-1.8215475278553	0
393.75	0	0
333.47776794871	-3.5455623306766	0
333.32829600302	-2.0912358546895	0
332.12627779557	-2.8669555370872	0
331.35695708343	-2.0087136246733	0
397.8125	0	0
343.40290249612	-2.9173543966204	0
398.828125	0	0
338.40066267575	-2.1165869671019	0
401.72686527464	-1.881439340604	0
404.921875	0	0
405.42511888168	-0.93609045423072	0
405.9375	0	0
335.33308839799	-1.7732143159922	0
407.57439902527	-0.91845202885849	0
408.55892722411	-1.0390572048335	0
407.96875	0	0
348.44945977828	-2.1614755500577	0
408.984375	0	0
409.64579943804	-0.93274479805356	0
410	0	0
350.078125	0	0
351.09375	0	0
344.96449486909	-2.8411413037746	0
393.13994783719	-0.69399796004703	0
392.734375	0	0
351.48288146008	-1.8785345486449	0
352.56127672653	-2.4876674855893	0
353.79435017936	-2.8298004912344	0
358.5493188064	-1.8246639619509	0
358.91293493747	-2.7632851951456	0
354.57879025645	-2.0855017523654	0
364.9548746167	-1.854617942693	0
365.91113364048	-2.0225199197494	0
366.70324723339	-2.8669675982067	0
368.05339608415	-3.6034268614039	0
367.87775324316	-2.0946116819971	0
379.53125	0	0
373.93706207799	-1.2266272403076	0
[...]
CELL_DATA 6990
SCALARS Coverage double 1
LOOKUP_TABLE default
1.1921464287844 1.3739319956298 0.35501227552951 -0.15814935711766 0.85162944638931 -0.23069607761329 1.4727064705115 1.3284314724873 -0.38077840828168 1.2310221214046 0.062710230014134 1.6023668592329 1.2213293099031 1.131315669819 1.6665676799363 1.7068119735441 1.6458211579178 1.5954093401384 1.2375116932792 1.6491100914269 1.6975770521286 1.027063865361 1.7073947699328 0.13085315621412 0.94958008896195 1.593401831111 0.5871275015349 1.1876140546946 1.6092619598185 1.6098082402806 1.6672763317221 1.2831192985503 1.6254876801387 1.1587596652467 1.2652128753717 1.4174796432729 1.125685522474 1.1872782986169 1.3213040687424 0.87664218681909 1.6435977209169 1.3341058332673 1.6770105482388 1.7012801703223 0.88361060960824 0.68701979426755 1.6115175734342 1.6038273819346 1.6731172301598 1.1893205338116 0.83903680779808 0.88492342768367 1.3275753603724 1.6407277280774 1.1968764684696 1.7132830003189 1.1821829638811 1.5705051197407 1.1467027430893 0.66079254003319 1.6146863996727 1.6499335768759 1.2862235622642 1.6151680346699 1.3390238772742 -0.33251464120516 1.1596761119952 1.6588530704112 1.6158403204035 1.3003050627056 1.3940707132097 0.87377593490037 1.2000376571781 1.5793558543162 0.98174407968027 1.6326406751411 1.1623327533785 1.2006459342639 1.6338777111749 0.86361980442235 1.5790443540845 1.3180369439084 1.236586942159 0.93295075117758 1.4122594253531 1.7260619857874 1.6602688909771 1.6728697730596 1.667627852922 1.6138920750291 1.2563867002956 1.0545055594174 0.88210880329325 1.6571116148869 1.0711030880575 1.3480206714247 1.0143910485279 1.3118058446135 1.6810451136772 1.5724099427262 1.085937287101 1.6063079295481 1.70770167891 1.1988861110449 1.2975216382064 1.7126296260931 1.6582998235127 0.9909603945356 1.4419064875537 1.5451202454887 1.4643116337307 1.6529235106218 1.4368648553791 0.77602394977399 1.1785999039309 1.2091695583454 1.6406027797891 1.7007560334742 1.6794889662212 1.6037115037051 0.16528639319216 1.339031155293 1.1416990122293 1.7757220294819 1.2778314597276 1.229342629676 0.85392997436157 1.0475795342402 0.99887726856759 1.6521581055168 1.064047318722 1.6423442837017 1.257375536057 0.7972653685538 1.7063554493561 1.647726095099 1.0717504905293 1.1927736718644 1.2310957862417 0.94238233753481 1.3322430469374 1.1951320220777 0.9556918439206 1.6597944863505 1.5750734769935 1.3281661387708 1.5657683699599 1.7110351718802 1.0298079098195 1.1803890932925 1.1024254448744 1.6740656031282 1.1637561103125 1.166794431011 1.3309235411593 0.81591668792554 1.6650571724793 1.1423552484505 1.3869749515424 1.5840542686424 1.5724889104701 1.320582361982 1.6783470154214 1.5596114792043 1.647806844546 1.0056097829663 0.83862563561404 1.7272694809335 1.2123554559436 1.5312413357328 0.90829472250688 1.5920688068161 1.7336090073902 -0.33539868754234 1.6493895854898 1.6578367554775 1.6258048687884 1.1875260597386 1.3196977570464 1.6126568525042 1.0330037871204 1.099346528151 1.3373940329782 1.6307551030701 1.7312110357892 0.83045769113461 1.030875672099 1.3351634242386 1.0792106913814 1.5734417038083 1.7176787894871 1.6518571368791 1.089604308094 1.2017071421345 1.6353823246521 1.1230019544166 1.2027261331139 1.1370184296197 1.548967500141 1.1412135140973 0.83774570868595 1.6788722616251 1.0378580422878 1.6152342111999 1.2197230594483 1.6460568323642 1.3202331074863 1.05051424411 1.6717612583854 1.1494415924585 0.72279959073772 1.603130075571 1.4088110589389 1.1429341340175 0.87754502265328 1.61946443285 1.016116627963 1.2726569120242 1.268860454303 1.337400406174 1.1975224266656 1.6248097440226 1.610631804316 1.0223904797899 1.3340464245281 1.6786266690709 1.113218184959 1.6103274241632 0.71421453155844 1.1925059817558 1.6441846679912 0.85786045841456 1.2966799525722 1.2045735390923 0.81270267707745 1.4103862564691 1.1626712837996 1.0517576998883 0.8721613605083 0.96317995381223 1.6557462470841 1.1770120405501 1.7119479064404 1.6302280595701 1.6840071616508 1.6393096765156 1.2681103584708 1.0735197820124 1.0573010458943 1.0012034856196 1.0159742345741 1.242053704152 1.6573578631854 1.5596006709316 1.6513065146568 0.78253444860052 1.0773967093624 1.1671108965509 1.7071146516807 1.6951225669364 1.6353021561935 1.329124353664 1.0352685454039 1.2825205286178 0.74148331698595 0.93023592609901 1.0423034247563 1.5833941369764 1.7469539962538 1.0936307556432 0.82888572960093 0.64013167634953 0.96794631819539 1.3696873582045 1.0939184948546 1.6680115166506 0.95630808653639 1.269891234223 1.6967257122367 1.0729556527781 0.85638295885483 1.1693685904826 1.0769359408247 1.1853636298838 1.5945241175776 1.0286265812725 1.6220721857439 1.0711121282765 0.88443284837762 1.5087178909238 1.0782184831213 1.7255978186925 1.6561694995522 1.0334044013463 0.80849271027512 1.6253882422148 1.0506918672444 1.639068660541 0.81469490562475 1.6660688063617 1.0136065210039 1.3549975604208 1.6630685531348 1.1144714444495 0.48350122934175 0.49865161713905 0.964837563705 1.6151721016529 0.96336064694594 1.0448040993121 1.2635969289852 1.6727687885632 1.03670257493 0.67738641946088 0.93429606846001 1.4264546370668 1.6606119627282 1.1363466251677 1.0063174316282 1.3986371240782 1.4712121957252 1.4110056717788 0.9614427231354 1.0437140249227 1.661648569082 1.0910513116592 0.67697269228742 1.0689281426923 1.1776953711576 0.98466399236254 0.96255029740148 1.2155540310297 1.0995518659477 0.44699300537117 0.90865024267958 1.4157289567401 1.740094667674 1.2178435321767 0.70973466935117 1.065683500228 1.2062093263302 1.3875226023222 1.0790824188769 0.6272763538342 0.98286132881574 1.2019986823136 1.4101775990684 0.98720059010549 0.96554908240186 0.84680387385178 1.3296736786309 0.74854315479117 1.0801469433411 1.0663994024599 1.3604419606569 0.88822384529671 0.69661092421643 0.82258315595149 0.68753942155039 1.1817690604428 0.71733261463043 1.00548584053 0.95362711892115 1.2320048195318 1.3780041174396 0.70226428812794 0.45403614151009 0.42523599088681 1.200299490477 1.0163217171184 0.79266351509729 1.2259315114496 0.78581085645384 1.0333851979335 1.3579401284726 0.86804041987241 0.69424389158695 1.0326451389761 0.76235697652637 0.77700238944372 0.94290357765812 0.66311594550426 1.2990638595359 0.83161406820674 0.91953936014201 0.47295438147809 0.92781081138067 0.93687038009731 0.88660387419285 1.395714693397 1.201408187662 0.70037831536069 0.40049526615335 0.45556343591056 0.83142579607006 1.2235144978212 0.43781616073781 1.0240721322955 0.91043797093976 1.2990893963571 1.3578297385283 0.95509641103519 0.7297220198788 1.1094113833637 0.58152274754541 0.83995820683907 1.0777828306163 1.1646668514164 1.2462321405651 0.97136802811471 1.1434639607605 0.76884000793651 1.0721973388309 0.69140430290709 1.1557016417047 0.84422439167552 0.80975194109975 0.42601186044098 1.1379212366007 0.94522084446782 0.66155392839633 1.213150376859 0.72479374693538 0.98235169607654 1.0142101405244 1.3454684540459 1.2480956187432 0.87574085974316 0.67710890687643 1.0520920944929 1.2919845584321 1.3692319083243 0.64617454696744 0.39792090895244 0.89495620980193 1.310787822282 0.83477345056024 1.4396265493134 1.0226849675822 1.7140660944148 0.65979685323492 0.47243646780833 1.4639387119911 0.68878201899994 1.5632944216497 0.77313288514222 0.85089745861234 0.6492715779368 1.7062088613702 1.0488709532185 0.51537324287558 0.7940728964172 0.819414324728 0.70922231880412 1.335914328782 0.80997272060853 0.71925885290552 0.89971611602523 0.81040656879953 0.76998309718448 0.75194230646544 0.85914630087569 1.3668762830172 0.77399056124124 0.65916436463924 0.68468460930452 0.57662295426336 0.79280521972531 0.78618246546163 0.69227782418629 0.59867563972949 0.44749658354073 0.50282275067035 0.85976086929287 1.0582059312149 0.67202052915107 0.685984343741 0.71665263326248 0.68776241832399 0.62439446050219 0.81962860169267 0.77655079740173 1.079150177243 0.54589705194905 0.64123110067047 0.085629143226984 1.135065502492 0.7041664547157 0.79780465212214 0.36767589468542 0.42996766216617 0.70866181692653 1.1806213816316 0.57656834038778 0.63817031701326 0.54823471372445 0.75610380494184 0.75838209261328 1.1462122705633 0.54741624472973 0.66714237606564 0.81076166013194 1.2056066632727 0.68878598984533 0.84460881643754 0.91559102652908 0.73742528509057 0.72672430498907 1.0287945363103 0.66358379961262 0.40223746822888 0.48104859750502 0.64304249112529 0.44794433828261 1.1696073825586 0.43269695143276 0.62418392757407 0.35413657325285 1.162444865672 0.7607372198532 0.66320445920475 0.56897582763987 0.97162310022792 0.88284214325188 1.1993218393738 0.67002845386666 0.79243804217309 0.76820931315657 0.85491298200899 0.67232825090578 0.93090185090646 1.2324062595014 0.59995628131529 0.64112485956397 1.1866934630807 0.74382721392345 0.82610966592984 0.31419918433453 1.4110878250263 0.74262083916984 0.41534986801555 0.78551112995947 0.90870908861988 1.096142665942 0.62522930102191 0.42923261632093 1.2364229477259 0.68233869963875 1.0454630175668 0.79287166623648 0.29315643275937 0.39725090832199 0.98719217122474 0.76014372744663 1.1733351274888 0.67990912008365 1.2098208697435 0.81759902960992 0.67789944754766 0.77101876037491 1.022807182888 0.81850709503316 0.64872848072402 1.0905262155396 1.1594027923456 0.69388931245049 1.1523808892839 1.0116302654557 0.56545080906851 0.38561907928162 0.64914071955659 1.0504960402367 0.51606914814014 0.64594481870642 0.87782030319385 0.74111283859494 0.92053974158227 0.62031450012722 1.0563816490072 0.69687008968324 0.77324775009028 0.9230013852675 0.45485744665967 0.68782654672747 0.54149614330282 0.53021643575928 0.6751754389021 0.47509981491762 0.45512996449012 1.0854391167272 0.75659924088705 0.89896082240945 0.37494491993159 0.80842867143693 0.62112650162209 0.74165506754391 0.68781144043839 0.67067580529521 0.82128642538089 0.95504304752447 0.40656848338661 0.56604067868443 0.47978846565951 0.94545820451368 0.564312093373 0.44278807053328 0.4767564736847 1.1438222195333 0.71186016825773 0.87336980528799 0.35750873014273 0.49682640175334 0.69652680746671 1.0862770254224 0.88202530226985 1.0402317640739 0.39719479392954 0.55914233737141 0.76727660210819 0.87665143818757 0.70445665452379 0.9472022761016 0.89412863586959 0.99401439581555 0.54714577955057 0.554667555687 0.6875058753458 1.1234951841277 0.77478373383854 0.95437074364261 0.42081342092932 0.44372804329091 0.65376564930798 1.0668353480879 0.7879552325468 0.73835360430308 0.82714396930232 0.58544949372179 0.95092624485166 0.80701317723025 0.86677086130318 0.65841567765643 0.89316219600252 0.43212005235041 0.49427954589234 0.3899641407105 1.1309433333262 0.63443688868148 1.038118900372 0.78801864455687 0.54209638934123 0.53729771554102 0.22943444779934 0.71087037071141 0.70776548654773 0.61496452720694 0.70456251182519 0.64496889827475 0.52164466776363 0.62133221610825 0.76178188725214 0.65311714240139 0.025791364683615 0.76192856125071 0.46058996038945 0.57924659997539 0.54708507137037 0.61652984897384 0.55355283460881 0.34557815438183 1.1467549366799 0.75760925695256 1.088445010382 0.76919907727568 0.57145639624198 0.83329845719002 0.61413616560341 0.5847249304112 0.41920780369125 0.44427470089309 0.52209790761227 0.67252038733563 0.57129667228129 0.56355249326462 0.67597648812306 0.59719174712153 0.51991195435935 0.38302071137046 0.64861082983628 0.35137468685855 0.44902545320073 0.50816929769266 0.69591030403113 0.65645172705074 0.59006075679407 1.0783858533711 1.0177934402913 0.68977730404669 1.0630370307338 0.72647667402801 0.55359579064947 0.74942625236244 0.85442979940844 0.5465264677779 0.66389055392883 0.57433518784409 0.31425878456998 0.58092912027281 0.82216636082968 0.55872193908655 0.84672034914352 0.57834482371143 0.85317562188392 0.51944981314356 0.47289483598918 0.46790897780316 0.51581407129422 0.52584219152266 0.42167671034991 0.53769861739721 0.37782418857408 0.49622299936634 0.48531422590098 0.50247138680989 0.50231728278733 0.45947320272436 0.57226763959025 0.6633211405577 0.37493654681693 0.43291584757669 0.80464677479503 0.90632258498517 0.48115346228824 0.49184011328534 0.36445216009267 0.37693934880258 0.52347382498388 0.66155556084099 0.5849619982517 0.10621268136603 0.69739249825759 0.57542909874986 0.79425563636935 0.58637448742285 0.38729828321415 0.38040980920404 0.8135261528803 0.70324654625147 0.39092516926775 0.39214227577384 0.40173774738563 0.36174073345226 0.65894468440464 0.69691418875802 0.39063811735306 0.4620453528132 0.43317557211197 0.6338996941224 0.56926601744715 0.40893887944544 0.55445808198127 0.35767057584123 0.42421459786101 0.4464415500852 0.40216647741632 0.58951736164307 0.53652675373227 0.50984598635268 0.64290456939529 -0.49136836634174 0.5095422606408 0.95438691825468 0.49289116806143 0.37637893374847 0.61434865769802 0.56554577967356 0.36868331624656 0.51298598842866 0.14129322224425 0.4508130375403 0.64922746480155 0.74173951385802 0.41428758439012 0.50576908861399 0.13169535073602 0.73333731254598 0.76834258499771 0.54036635208129 0.61389779124998 0.54606470401162 1.1463811778762 0.79916857716146 1.2160978275017 0.72500180858977 0.47611331399464 0.55394286826074 0.39982830932999 0.77357258048652 0.44827205779802 0.46775616832198 0.8405758193188 0.5816190380978 1.0353611312334 0.83440317229288 0.45364728751614 0.37201379015998 0.63462000344635 0.42751943997371 0.33898306724829 0.38271296950654 0.47314676803205 0.56517577063656 0.43727077577392 0.6023026704021 0.39617961465191 0.34331220207638 0.58533758097416 0.42333239943111 0.49176178031519 0.61549429622538 0.48148963468245 0.67335259643574 0.13966131451502 0.42885601333172 0.57933851831799 0.38890532414262 0.6000008210918 0.3769662142107 0.48165067300982 0.48820400075381 0.39953774766368 0.36101412262074 0.42248938728492 0.42523442965919 0.41503317209514 0.44006259290016 0.61805529062902 0.34794268173146 0.81109568750224 0.46592863698771 0.38734447566728 0.48662802219707 0.3859484450971 0.36271650991338 0.31934031509949 0.46320122107161 0.52226301856329 0.55071331779648 0.4339366397594 0.49668265377846 0.35960832153052 0.52403614661905 0.58002190974205 0.45746237068858 0.41592691397752 0.4269730809113 0.59755715553698 0.41592537677828 0.43876340302303 0.63018632190222 0.41251542625748 0.53568443573738 0.50220261782938 0.44830883317213 0.56038495866929 0.60116050039383 0.41723537909993 0.38314193963889 0.81119813814941 0.38222110660906 0.64163562049605 0.53298453787882 0.44615044501092 0.35334519044497 0.40848635927323 0.40875269509771 0.40654338908091 0.4366928023896 0.38318081536167 0.39419535605108 0.44496718457174 0.41488327706211 0.25270762981852 0.46045770842484 0.24982024506811 0.4952678419425 0.36520243859912 0.46778306037959 0.43213237685144 0.39281646844172 0.43398600495885 0.43172949897717 0.43041172771236 0.40987823395236 0.44082186008086 0.40767741932034 0.43308629112257 0.37789569727026 0.57908922116452 0.41293730518103 0.36901034245843 0.42006525948454 0.45686795172155 0.44513638630916 0.46391288655685 0.33852862033633 0.40720405285635 0.41072981465643 0.63688154981153 0.41956591591334 0.32416335922188 0.42329938906803 0.41635262568307 0.3677219457099 0.46091416836567 0.37525166142577 0.4240441707142 0.33949984194475 0.36528852057875 0.4244687607223 0.36774405539086 0.45649677267998 0.43675438210245 0.35501571224362 0.44774603725943 0.28099414156038 0.3673901203746 0.33404449610962 0.39446891225996 0.46016712687591 0.35036758154831 0.36824447974326 0.33334247863273 0.39428702337604 0.44541321304955 0.35974533704189 0.43696284859395 0.44475798420656 0.45346882077166 0.33219403929694 0.40323677887222 0.41165293604314 0.06737524697617 0.40498516589093 0.41042921492909 0.44073667294798 0.42970014494957 0.32493910145908 0.42273481082477 0.43102612352865 0.42177813543433 0.45710914446086 0.25711662995847 0.36897436891836 0.36902505277647 0.36157845316763 0.27438806239155 0.22534988461224 0.2557412624507 0.21951569328008 0.15429787583685 0.35071434494697 0.38779790669441 0.2263912023034 0.34020949681443 0.15463170728059 0.44108236428668 0.18126388766978 0.10695360603058 0.14228076306683 0.23526435659233 0.1882993697123 0.16199495319541 0.2289413710757 0.18707205089426 0.23423681656253 0.15602920436684 0.27927078124078 0.18721613515208 0.07793950737866 0.37575484049909 0.37927531616226 0.20187420463063 0.164867644661 0.397145264183 0.14981803516533 0.11050179006909 0.21190428202834 -0.087114182076636 0.59793068025718 0.52470642675124 0.49607790214122 0.64719711731467 0.49606291095094 0.41216419011253 0.45424165503937 0.46576517049388 0.46029180404766 0.39184347719497 0.39201539847097 0.45495889234491 0.50514871495184 0.38428168400992 0.45416577635118 0.40167457781873 0.57506099052672 0.49780282614316 0.57016185216116 0.47614850833861 0.40761205235175 0.40490110603192 0.51526030311268 0.41599418351583 0.39920640281089 0.42958235870605 0.15045205681849 0.38641951214133 0.65796377155645 0.65526646945093 0.69110481180372 0.35894968820481 0.56921249339609 0.47516847144574 0.53277338062549 0.42579676749768 0.45125008678664 0.4246268556399 0.41405595393048 0.45083092713918 0.37615781406557 0.49878833779168 0.37034635946053 0.40580921487573 0.45072557655079 0.37108236383996 0.59751638645767 0.51433175926042 0.40052884205916 0.39951251511515 0.40412584413402 0.42330732081516 0.43446647870131 0.40100048476462 0.34845863952468 0.43735045470436 0.45082153951122 0.46947867015265 0.45906742089893 0.42825733429815 0.39864151216111 0.40675000793908 0.49293731333649 0.42208470101043 0.50487383997712 0.45024444501028 0.32826114495706 0.43208964410034 0.36277156363536 0.42163119452759 0.41363400988683 0.42487666892525 0.42092229176437 0.39637884730464 0.37447979053456 0.43779255766762 0.4632737237567 0.42558207984866 0.40279171800476 0.44429344514656 0.39672612231658 0.4041633647126 0.40220625065864 0.44815614916049 0.41300273395116 0.42571488964236 0.43073139701306 0.47796080643799 0.42194210058084 0.16326217413547 0.41865574717085 0.40374650851657 0.45379806878559 0.441143616216 0.53323730500227 0.5542085407431 0.47760450960547 0.60619378568529 0.62218723768212 0.61465265985199 0.48651076379064 0.44689060540054 0.46175754804534 0.46252987204491 0.40618164509277 0.30736675520256 0.51941708041764 0.35710298351103 0.37497762787569 0.3216713988121 0.40088597035094 0.55162732311884 0.56861647698686 0.45833578531285 0.40779525105443 0.50585237721758 0.64651076046986 0.66862911212708 0.70014962215563 0.3692341375303 0.54549989607824 0.42291195669097 0.37157548799251 0.51856715425735 0.43290749924388 0.4222073691045 0.49058371200731 0.47513276206439 0.45077851397838 0.58898235647109 0.54415504949395 0.52517619269145 0.61227454798976 0.42485849830529 0.60986426321974 0.42528426537347 0.44321401975095 0.36196106959858 0.43534753356981 0.12361921310453 0.34765909898594 0.33967283572187 0.29271583156813 0.37538981757285 0.3775221432481 0.36884358136373 0.32082244651026 0.36665158420205 0.33835418702081 0.28973805768409 0.38526854262184 0.33927468613692 0.38350504737036 0.45757821890612 0.46892491279345 0.42245644116347 0.45446715972156 0.41928091749528 0.47983765187093 0.44170298111532 0.46327211581977 0.48303527521419 0.44081415079865 0.51697067177657 0.45825267846483 0.46335098530754 0.41540116195838 0.62540089598665 0.4148160775501 0.42470660847292 0.40647642744228 0.1400234365393 0.44583787933252 0.43515864736427 0.41163868124711 0.46391872954536 0.40111179853844 0.61148923268116 0.44265038762896 0.39422712998206 0.41066891810146 0.41331733378891 0.39894138059858 0.57124035096272 0.40642524108111 0.39323802077385 0.34749638545874 0.35580784487913 0.38927725854073 0.39677985499704 0.395871137598 0.43860152136174 0.43479425454684 0.3563648045814 0.45817183823202 0.44178343767527 0.44999286928267 0.41636097628421 0.40388473137873 0.41442503124395 0.33109938851454 0.4301271684704 0.4333655981166 0.36927067934864 -0.037623474750252 0.34432059957302 0.3821733312933 0.28692570406537 0.18718709047702 0.35235680770841 0.32817308859626 0.30765584316833 0.310996