# vtk DataFile Version 3.0
d-2__ created by libgimli-v1.5.0-1-g5991b6ac
ASCII
DATASET UNSTRUCTURED_GRID
POINTS 3056 double
16.047984885364	9.2005108665658	0
16.227640130622	9.31797770521	0
16.052808675398	9.4151062914457	0
9.6856707273838	12.779965388042	0
9.5840448320983	13.008863982168	0
9.459889155087	12.888340064957	0
9.4017034496321	12.989518397958	0
9.4966291044861	13.057428275285	0
9.409213376874	13.105992568403	0
6.9615730037337	14.465792775704	0
6.8666473488796	14.397882898376	0
6.9945996683525	14.319328169198	0
10.283370652996	12.620349637225	0
9.9337077425469	12.814606809696	0
10.035333637832	12.585708215571	0
10.370786380608	12.571785344107	0
10.246630703596	12.451261426896	0
3.2	14.888006064741	0
3.3935321886838	14.815842352641	0
3.3	15	0
10.363276453366	12.455311173661	0
3.05	14.894536113346	0
2.95	14.834347813918	0
3.0997032337695	14.698789777549	0
22.54986393823	5.4610590293129	0
22.601478319067	5.6563101371606	0
22.484832569298	5.6522603903955	0
7.8357302798552	13.980149844525	0
7.7483145522431	14.028714137643	0
7.7115746028439	13.859625927314	0
8.7098875559768	13.494506913346	0
8.6224718283646	13.543071206464	0
8.5857318789655	13.373982996136	0
21.698091020789	6.0893390284563	0
21.734830970188	6.2584272387846	0
21.639905315334	6.1905173614571	0
4.9002967662305	14.698789777549	0
5.05	14.834347813918	0
4.95	14.894536113346	0
8.5275461735105	13.475161329137	0
8.5350561007525	13.591635499582	0
23.708017310135	5.0679061559452	0
23.57570494199	5.2584272387846	0
23.492391392804	5.1534065041647	0
7.9373561751407	13.751251250399	0
5	15	0
4.9	15	0
25.208739718026	4.888006064741	0
25.308739718026	5	0
25.108739718026	5	0
6.7500015991102	14.393833151611	0
6.8150329680421	14.202631790528	0
7.6608988246309	14.077278430761	0
7.653388897389	13.960804260315	0
12.90584248136	11.163420843689	0
12.869102531961	10.99433263336	0
12.993258208972	11.114856550571	0
14.304494123155	10.386392153803	0
14.40612001844	10.157493559677	0
14.654157033603	10.192134981332	0
11.237433729487	11.969668242483	0
11.18581934865	11.774417134635	0
11.36538604896	11.891113513304	0
11.120787979718	11.965618495718	0
11.885664010266	11.385614544848	0
12.082360983452	11.431411271421	0
12.024175277997	11.532589604422	0
13.080673936584	11.066292257453	0
12.98574828173	10.998382380126	0
13.867415485094	10.629213619392	0
13.77248983024	10.561303742065	0
13.830675535695	10.460125409064	0
10.909490913954	12.100065284392	0
10.844762499738	11.765076855645	0
12.934133900893	10.803131272278	0
3.6	14.810067208388	0
3.7	15	0
3.5	15	0
12.657805466197	11.128779422035	0
12.556179570912	11.35767801616	0
11.244943656729	12.086142412928	0
11.157527929117	12.134706706046	0
1.3	15	0
1.2	14.888006064741	0
1.4	14.810067208388	0
1.9	15	0
1.5	15	0
1.7	14.849260526121	0
12.119100932851	11.60049948175	0
2	15	0
2.05	14.894536113346	0
2.1	15	0
12.031685205239	11.649063774867	0
1.0997032337695	14.698789777549	0
1.05	14.894536113346	0
0.95	14.834347813918	0
11.332359384341	12.03757811981	0
5.7	14.849260526121	0
5.5	15	0
5.503868896942	14.598288840263	0
4.064468339761	12.492321883392	0
3.9817116885018	12.918420923089	0
3.7670358212135	12.67328000924	0
13.779999757482	10.67777791251	0
25.602637769837	4.524993056905	0
25.708739718026	4.8492605261212	0
25.458739718026	4.8343478139176	0
14.734062833973	10.027096517768	0
14.682448453136	9.8318454099206	0
14.862015153446	9.9485417885899	0
-0.24940646753892	14.834347813918	0
0.05	14.834347813918	0
0	15	0
15.804771660235	9.3804648697915	0
15.703145764949	9.6093634639172	0
15.578990087938	9.4888395467067	0
29.767533861964	4.3398980943704	0
29.508442951795	4.548348532907	0
29.495546029131	4.1485808085627	0
0.1	15	0
0.3	14.849260526121	0
27.458739718026	4.8945361133462	0
27.358739718026	4.8343478139176	0
27.508442951795	4.6987897775495	0
0.5	15	0
16.678928936356	8.8948219386129	0
16.4287009421	8.6628888321103	0
17.028591846805	8.7005647661415	0
1.1	15	0
1.95	14.834347813918	0
20.105956534257	6.4151422964054	0
20.247470662652	6.669867727517	0
19.925330046586	6.7203171073957	0
21.501394047603	6.0435423018831	0
24.087916739041	4.9470663132613	0
23.750549209437	4.5440302871062	0
2.3	15	0
2.2	14.888006064741	0
2.4	14.810067208388	0
26.308739718026	5	0
26.358739718026	4.8343478139176	0
26.408739718026	5	0
25.008739718026	4.8100672083876	0
24.908739718026	5	0
3	15	0
2.9	15	0
1	15	0
21.472583787351	6.4041201181382	0
21.297752332127	6.5012487043739	0
21.301387084399	6.2885606170178	0
19.199774869435	7.6667917392027	0
19.112359141823	7.7153560323205	0
19.104849214581	7.5988818618751	0
6.1791038580454	14.704649136022	0
6.0874157276122	14.951435706882	0
5.95	14.834347813918	0
6.8741572761215	14.514357068821	0
6.7867415485094	14.562921361939	0
16.402471585846	9.2208491189743	0
16.260666795241	9.171513098704	0
16.394961658604	9.1043749485289	0
6	15	0
28.922845333402	4.5823118347521	0
28.708739718026	4.8492605261212	0
28.602637769837	4.524993056905	0
4	15	0
3.95	14.894536113346	0
4.05	14.834347813918	0
28.108739718026	5	0
28.208739718026	4.888006064741	0
28.308739718026	5	0
7.136404458958	14.368664189468	0
7.1315806689246	14.154068764588	0
7.3112359141823	14.271535603232	0
23.945942620228	5.1435706882137	0
23.403806383266	4.93902940218	0
3.9	15	0
4.1	15	0
27.608739718026	4.888006064741	0
27.80227190671	4.8158423526409	0
27.708739718026	5	0
17.36404458958	8.6866418946778	0
17.356534662338	8.5701677242324	0
17.451460317192	8.6380776015599	0
5.3	14.849260526121	0
5.1	15	0
14.617417084204	10.023046771003	0
5.9	15	0
6.5387045333462	14.528279940285	0
14.998996154018	9.7832823839802	0
15.178651399276	9.9007492226244	0
15.003819944052	9.9978778088601	0
4.3	14.849260526121	0
27.508739718026	5	0
16.453147364059	9.0031966155281	0
16.256450390874	8.9573998889549	0
22.871235429146	5.6270914282524	0
22.72943063854	5.5777554079822	0
22.866411639112	5.4124960033725	0
21.122920876903	6.5983772906097	0
20.948089421678	6.6955058768454	0
20.981116086297	6.5490412703394	0
1.8827233936571	13.413209492963	0
1.635985724768	13.057931042977	0
2.0585343714792	13.116469985366	0
13.63397856251	10.414328682491	0
24.321832839145	4.8833962425865	0
24.408739718026	5	0
24.316180298466	5.0287141376427	0
24.708739718026	4.8492605261212	0
24.508739718026	5	0
24.458739718026	4.8343478139176	0
23.483145522431	5.2871413764274	0
9.2631921819019	12.842543338384	0
25.358739718026	4.8945361133462	0
25.408739718026	5	0
25.508739718026	5	0
12.206516660463	11.551935188632	0
3.1	15	0
12.308142555748	11.323036594506	0
24.679068235604	4.239790780138	0
25.006267059794	4.3425605622482	0
24.599747236054	4.5734506034563	0
22.521572518697	5.8213486007239	0
22.608988246309	5.772784307606	0
11.502367049532	11.725854108695	0
11.68202229479	11.843320947339	0
11.507190839566	11.940449533575	0
10.491228772839	12.376756444483	0
10.633033563444	12.426092464753	0
10.45820210822	12.523221050989	0
22.696403973921	5.7242200144881	0
23.395729794819	5.3357056695452	0
23.358989845419	5.1666174592169	0
2.8061019481889	14.524993056905	0
2.7	14.849260526121	0
26.108739718026	4.8492605261212	0
25.908739718026	5	0
0.9	15	0
26.458739718026	4.8945361133462	0
27.308739718026	5	0
27.408739718026	5	0
29.358739718026	4.8343478139176	0
29.408739718026	5	0
29.308739718026	5	0
26.508739718026	5	0
27.108739718026	4.8492605261212	0
27.214841666215	4.524993056905	0
28.408739718026	5	0
28.358739718026	4.8945361133462	0
28.458739718026	4.8343478139176	0
28.508739718026	5	0
21.923872593085	5.9809643515411	0
21.8222466978	6.2098629456668	0
26.708739718026	5	0
26.608739718026	4.888006064741	0
26.808739718026	4.8100672083876	0
28.908739718026	5	0
29.108739718026	4.8492605261212	0
14.056457107991	10.351750732149	0
13.954831212706	10.580649326274	0
29.658146185565	4.8343478139176	0
19.54461398985	7.2579391418513	0
19.724269235108	7.3754059804955	0
19.549437779884	7.4725345667312	0
21.647415242576	6.3069915319025	0
13.250681601775	10.754568246337	0
13.430336847033	10.872035084982	0
13.255505391809	10.969163671217	0
9.2674085862685	13.056656548133	0
16.489887313458	9.1722848258564	0
16.577303041071	9.1237205327386	0
17.626291772416	8.5409490153242	0
17.484486981811	8.491612995054	0
17.621467982383	8.3263535904443	0
21.284504402929	5.7190625713937	0
21.673644598829	5.7490312450385	0
17.276628861968	8.7352061877956	0
16.926965951519	8.9294633602671	0
17.239888912569	8.5661179774673	0
18.11404618869	8.0804750462887	0
17.902749122926	8.2149218349628	0
17.83802070871	7.8799334062158	0
18.238201865702	8.2009989634992	0
18.150786138089	8.249563256617	0
8.5612854570062	13.033675212718	0
9.0547266763919	13.085654315995	0
8.8115134512622	13.265608319221	0
14.741572761215	10.143570688214	0
9.2343819216497	13.203121154639	0
9.0595504664254	13.300249740875	0
9.4354427331278	12.548032281539	0
9.6630878033521	12.327490919146	0
15.615730037337	9.657927757035	0
15.520804382483	9.5900178797075	0
9.9706052236163	12.250719786823	0
14.828988488828	10.095006395096	0
15.528314309725	9.7064920501529	0
19.986516417945	7.2297131011419	0
19.949776468545	7.0606248908135	0
20.073932145557	7.181148808024	0
20.175558040842	6.9522502138984	0
25.309036484257	4.6987897775495	0
20.860673694066	6.7440701699633	0
20.853163766824	6.6275959995179	0
22.273535503534	5.7867071790697	0
22.208807089318	5.4517187503226	0
3.1317176073544	14.309812537406	0
20.736518017055	6.6235462527528	0
19.891590763091	7.1618032238144	0
19.899100690332	7.2782773942597	0
28.008739718026	4.8100672083876	0
27.908739718026	5	0
18.23069193846	8.0845247930538	0
28.309036484257	4.6987897775495	0
27.895939159663	4.4709363375124	0
28.265207298324	4.2898533340251	0
18.988203464812	7.59483211511	0
23.147692779655	5.301064247891	0
23.04606688437	5.5299628420167	0
19.024943414211	7.7639203254384	0
20.773257966454	6.7926344630811	0
20.423595056005	6.9868916355526	0
20.525220951291	6.7579930414269	0
18.325617593314	8.1524346703813	0
22.171909608248	6.0156057731953	0
18.358644257932	8.0059700638753	0
18.500449048538	8.0553060841456	0
13.113700601203	10.919827650947	0
18.179077557622	7.889273685206	0
[...]
CELL_DATA 5825
SCALARS Coverage double 1
LOOKUP_TABLE default
2.2799437311698 2.2998701093625 2.8563032723762 2.3176408905447 2.3100902482776 2.8499217990622 2.1308734043089 2.2911473411263 1.8518043857547 1.8858018851713 2.7606552986347 2.7940430388176 2.2762977271133 1.8817248948299 2.8345076710666 2.3065755358567 2.2490057055728 2.7910132638612 2.392857716323 2.4170372197262 2.2100992623725 1.8986754629471 2.8029507622624 2.8861501618077 2.3423906866412 2.2088164495335 2.0259566178427 2.0375118843031 2.9173167638269 2.4364809259743 2.1190678197457 2.3593355975283 2.0471745683179 2.0943855686275 2.3345915029228 2.8562148530858 2.031152518863 2.1097285278201 2.4189494094321 2.728184045762 2.890678894243 1.6278351031408 2.8862210232318 2.3332138912261 2.0184717310131 0.77930769179761 2.931159494657 1.9260311584271 2.2707274127571 1.4902115592888 2.3561170257863 0.77820002279171 2.1868939010671 1.7587791599874 1.6914443266745 1.783914439516 2.1318499988292 2.1830058795738 2.713982623925 1.7797338373227 1.9012370276405 1.9435890152964 2.0979220511595 2.6846753013199 2.0660390963347 2.7533967125988 2.1257591785301 2.7048398382428 2.158491842266 1.9897556309252 2.8732235447604 2.0630823920055 2.7637814607867 2.4527836766915 2.4606842084151 1.6028990639086 2.2003184440239 2.1863651833501 2.1342709123442 2.1768080191387 2.2232977987643 2.0839669557997 2.780782891907 2.7390880593066 1.9878271235422 2.9081725970062 2.1986307553425 2.0519262823068 2.5098166940976 2.2576435107809 2.2787577836492 2.2094056455669 2.1633736934884 2.0289397995824 2.1521239697201 2.3570059558001 2.3297148429873 0.75188388975145 2.0551252835344 2.8331982495237 2.2404853838385 2.8653216254463 2.0076894978467 2.7211054102699 2.7064571823719 2.8643773125368 2.1338099432321 2.7734402686135 2.3394004697065 1.504514180312 2.7897294284185 2.2591988142287 2.8180359434828 2.3975083818364 2.8238400001629 2.8322659278813 1.9797639429329 2.3102438241874 1.9330917804221 2.0817398130633 2.1646611949978 2.678465745212 2.1716731484882 2.6713436682275 2.1789614828616 2.7219061916538 2.1593800897144 2.2521127748373 2.7299288032227 2.2335173123004 1.8082796887442 2.1547660114852 2.6735085298745 2.2529388067541 2.0309402244901 1.8183467826086 2.3702309727262 1.5596581076114 2.6930464344727 2.0522640433713 2.8057894542745 2.1921692525467 2.7525125567282 2.8312373243244 2.2744939351236 2.4248297740941 2.8821502769811 2.3512327494487 2.2804460631423 1.7047114758191 2.3219034468681 2.8774312734353 2.9043685199982 2.0488958433126 2.8557355597694 2.0762894783821 2.8930418710211 2.4443943711124 2.2515065606836 1.9245935177744 2.3832348818885 2.1219133231256 2.9301932740837 2.2915323255842 2.8798623191596 2.9084598005302 2.7767521723395 2.2767209793357 2.4273603370266 2.825507450546 2.8318833075484 2.2999716723366 1.7660971499642 2.8748571710747 2.8421896733959 2.2873919823649 1.9728216607398 1.6215805570245 2.3648033635281 2.8646329573459 2.0808377456744 1.938935388998 2.3171930654962 2.4314157308746 1.3864215525854 2.1559717343325 2.4057402184824 2.2016275514571 2.8408743269118 2.3043425382249 2.2421125957865 2.8903848267646 2.9132108175211 2.380667003715 2.2009031901265 2.3947799788289 2.80729758697 2.2318101982968 2.0033843043256 2.2787238075243 2.2604120357773 2.014187973402 2.2771303881654 2.3817973701382 2.245230232734 2.3997717470282 2.4295930924254 1.784942534951 2.2295449046638 2.2657517391832 2.267301787378 2.2825018687363 2.1311617280914 1.7405517675355 2.1929013770094 2.3194734740181 2.3729404475367 2.0174268637806 2.4142552445947 2.4361244766747 2.471421162064 2.4260214190848 2.45594013961 2.2360516050921 2.3524779395576 1.9850720736561 2.3721435999848 1.9933513575159 2.1476043164226 2.3160621233787 1.8648629011662 1.7854969575784 2.1929176754465 1.9782886012682 1.9628415769976 2.2344830382075 1.8892217992679 2.0240664213164 1.5552237181154 2.0827256152986 1.5035251411492 2.0343279742882 1.9205742394229 2.3138767254004 2.1852522912122 1.761639769518 1.9475159494172 2.2080045589178 1.9615241583123 2.4107205038172 1.8683636684445 1.9891514665403 2.2203866320014 2.1704599895256 2.3146001324021 1.9790363993306 2.0353081289944 2.0636252189893 2.3008908290228 2.2280325517335 2.2312621035702 1.9496505304422 2.1726556237186 2.2024585304855 2.373380406583 2.3343566922209 1.8655716462394 2.3941168317849 2.1586843664541 1.8782432002734 1.9179614610131 2.3051812627036 1.5149472598995 2.0413528629413 2.173532679673 1.4820833876156 2.2414816001768 1.464074710076 1.8424368802256 2.1652675373274 1.5938934594899 1.9960739315785 2.4265594949896 1.8528307714372 1.9324253416631 2.1624094486216 2.0792887444624 2.2955739855442 1.9665877221729 2.1731275742501 2.3427390408795 2.2418231691429 2.2721543423097 2.2708464541817 2.4463780561009 2.4126172725871 2.1030360297736 2.1824955921097 2.3023636866878 2.2721055073771 2.4499001075563 2.4183852247762 2.2934817665779 2.2820444346963 2.4701085030557 2.4372555491526 1.7626015002846 2.3524149669275 2.0375573986145 2.3865300646612 1.8069591104521 1.7560314394014 2.0661678614311 2.1844952014804 2.2633894519485 1.8730964055011 2.1893257296582 2.0851001117546 2.1201423779948 1.9145240956127 2.2968077908483 1.9155222156042 2.2429574757536 1.984261618745 2.343813666165 1.9867372129304 1.9630916242283 1.7625798641442 2.2167657075842 1.8351611177239 2.2395887725897 2.2396418964172 2.3321750458781 2.1101277311668 2.1729678395713 2.1070204983275 1.8545109504945 2.0634820133346 2.4312574009366 2.080725714248 2.447013318798 2.1208319736192 2.4201507655988 1.9573811766434 1.8202271195708 1.7947352117119 2.0459825498653 1.8315144986861 2.1235978985818 1.9733344364895 1.9168207946988 2.1401792124794 2.111625344298 1.9742848226153 2.2047145916427 2.2189320203577 2.2083429226112 2.0370219541402 2.4130882208969 1.874514896543 2.1954598791685 2.2515399940663 1.9040071531519 1.8219831911936 2.0944104240315 1.9812272986654 1.9902904211206 1.5910084557538 1.9925961455735 2.2898499303771 2.1370503871591 2.209723548286 2.1023309943843 2.0005561112274 1.8173712231589 2.319127755733 2.3184057232283 0.6177969884422 2.2103112581271 1.0025914843736 2.34932331481 2.2643429639614 2.0671701707983 1.8820366578043 2.2712598056326 1.9782217714822 2.0828775818573 1.8008410566261 2.140157737583 2.0088997163244 2.0055653690677 2.2426785268678 2.2543942972831 1.9085589155422 2.277675401732 1.8845278207073 2.0137617485381 2.126089265534 2.1280468060268 1.9613774386088 2.2975448700665 2.2361000167109 2.2319794615693 2.1826834787859 2.2662958735912 1.9306864837453 2.3461011001723 2.2119882997646 2.0372121661042 1.2835691490351 2.0872501259952 1.7827723203125 1.7276537347508 2.1344804716647 2.1001645294799 1.8254180783019 2.0976798969615 2.0806969998434 2.0183074265095 1.7221240627432 2.1089265365999 1.9840648601198 1.7549861028089 1.4727733968143 1.7770416612629 1.7908265714149 1.77404920153 1.9579992224965 2.3374757287866 2.2215899052695 2.1219912987588 1.965610982635 2.3643588061538 2.1878966559592 2.0935716042242 1.8395437337035 1.7670893201349 2.2252291219018 2.0977922567355 2.0228108276304 1.9815530305883 1.7908203084294 2.3622556692041 2.2105932331672 2.1268374317684 1.8860595404894 2.2583705802802 2.128481835085 2.0675116257842 1.1974978836339 1.2084629698054 1.505349377854 1.2693254848182 2.2192174606485 2.0917060854617 1.928176266844 2.1912569447087 2.0520882353811 2.1645493005844 1.9746708871935 2.0145833150035 1.9489557006434 2.1770174718758 2.1067145619044 1.9373955863289 2.2235114061721 1.9853964088926 2.194436296107 2.2908463864543 2.1825820029902 2.0145426456404 2.2512216156856 2.0974077739884 2.2123483822341 2.0657994279869 1.9828651287279 2.0346996593375 2.2898480850632 2.2146078515295 2.0457449476987 2.2335698475939 2.0988390261384 2.1982911776544 2.3052201199026 2.1959067785596 2.0242770717037 2.2633093031368 2.0950684674477 2.211539531254 2.2385202222215 2.0127777029319 2.1981726271355 1.9796338986629 1.8581502052983 1.6262577664912 2.0698098649034 2.105011886548 2.0234613183276 2.0501596190655 2.0296744238515 1.8631730618136 2.0475323247537 1.9553280384406 1.7180194916713 2.0830423414982 2.054328437942 1.8435416699274 1.9093306784532 1.9465334531896 1.8244760754671 1.8827253409028 1.8978091062273 1.7159070853805 1.9610771036275 1.9408130617102 1.7334556553973 2.229187168042 2.1187634205026 2.1903795762697 2.1200029280359 1.9993306641549 2.0800215842059 2.1780936449855 2.1704279338592 1.9636893469256 2.2021516048035 2.1829499236879 1.9746115679376 2.2312866610365 2.1720746974526 1.9450351779022 2.1603263516912 2.207795287012 2.1117729790372 2.1509415107682 2.1589086319213 1.9926436203491 1.8134238684241 1.9414900147891 2.001582566877 1.8779866326971 1.7221078466764 1.5269477939088 1.8480427906063 1.6191155623881 1.5070585240835 0.73013991943438 1.9691804272511 1.9057964239438 1.7015360362843 1.3431841784778 1.6035570054675 1.7024269409113 1.8113962196992 1.938763836945 1.6160718538586 1.7231359636949 2.0872191905947 1.5322345011814 1.9911281416413 1.3093811606642 1.1277480582689 1.7606513931483 1.6723217412157 0.51989573319873 1.7923684309995 1.7193331021112 1.8179699450945 1.6602190800503 1.7372838242924 1.6444190000769 1.6054989575628 1.6485055370936 1.6510359672994 1.0851110936294 1.7696319966025 1.8834045109062 1.3601733023643 1.804448211069 1.821331741702 1.8125158186477 1.5954100533565 1.8155309546276 1.9084127691803 1.809817400403 1.5388159418072 1.8037463316522 2.0415917266299 1.7966539575125 1.8236906816369 2.0268727708148 1.9432709179662 1.6934912674587 1.4860007241946 1.7170839834723 1.4848015595285 1.4101419353063 1.6097508363168 1.8079837883176 1.4244472251225 1.5846355727203 1.411103448131 1.5422296097888 1.411674587688 1.2590397711115 0.99926019034632 1.2505802050738 1.3815856455458 1.1901409702676 1.5791463874961 1.5475323734524 1.7775871219561 1.4167610683598 1.7355736436534 1.7109265754783 1.5302219255122 1.7451144956163 0.5211314235084 1.0885702380298 1.3819019711774 1.1127002679943 1.1705857006146 1.5583590294549 1.5193681301976 1.1949595103218 0.50381983569787 0.94225630811831 0.43484387355923 0.56781226372092 1.7373993416225 1.7939337292402 1.6530226317901 1.5557345639284 1.6482639526465 1.621880042463 1.2938968755946 1.0667744393887 1.4524883388518 1.8647312713571 1.2384509180634 1.9182963780363 1.3432694144219 1.2370803019813 1.8000796260077 1.5589732166539 1.3940366808996 1.5212614234876 1.3379348068679 1.5491702590199 1.7269293050895 1.4523179304033 1.3886930015233 1.288338232518 1.7873301412102 1.5404251186993 1.4593601546752 0.93717246821356 1.8092360599203 1.6045114164732 1.611502040779 1.4013879251387 1.794621349564 1.5553883080709 1.2830292555986 1.3595840317181 1.3830967710368 1.5674893881578 1.2721224353101 1.2167306218548 1.5181493814859 1.080533587414 0.88375141407612 1.013297893251 1.7389271004428 1.4854527218571 1.7417529766993 1.5473076718677 1.7792620773464 1.3847831746448 1.7369271767602 1.2880583181513 1.5032449823754 1.2834288471125 1.1694079841153 1.5435191378382 1.0117284531395 0.42879133267869 0.93044100596457 1.0098295212013 1.34744393531 0.98328153184308 0.55511853320529 1.2141074722021 1.2227995578853 0.17876731165001 1.5120985086461 1.2165548061037 1.2826305126201 1.1570157522893 1.4976575047748 1.3301016084843 1.579672025596 1.4133212831186 1.2629430476994 1.1614225536536 1.5451099642208 1.3296590821362 1.6182532612855 1.3456405564894 1.3614636534954 1.4151621112749 1.6199291491042 1.3547753950106 0.8477119365267 1.3548482426058 1.3714780141204 1.4205337577795 1.0359310347512 1.3528761213086 0.95080051834661 0.99570047605663 1.1027049219403 0.63973621380145 1.3622619560431 1.1661660910664 0.94157228989622 0.86650161397483 1.4874863716776 1.4348445024762 1.3080598080816 1.2705994573242 1.5033217846419 1.1575365330491 1.564782375724 1.3010377062475 1.4032793730688 1.2440130725753 1.6037521398687 1.2610053097812 1.6330779738193 1.3449508571068 1.3550187657605 1.4407232707413 1.6400404497186 1.3309263978472 1.3367720695547 1.4296939966543 1.2486793124784 1.0715899876723 1.3518818158444 1.346402355322 1.3635758117976 1.280969666994 1.292351293544 1.6178732396539 1.5691346475916 1.2896276465241 1.2980133022579 1.403349241912 1.8759170665524 1.5496358297519 1.2114970653587 1.2879624809743 2.0458072143157 1.6174728188053 1.3700142148154 1.3017942822935 2.0589096107808 1.6023733376084 1.3359270265613 1.2813880855984 0.93337139712764 0.90466757976265 0.94544488049668 1.2909296369793 0.65676740848484 1.2323978746463 0.8806342289772 1.2655216419732 0.85121737446112 1.9408282524024 1.5801825212072 1.1965717085085 1.2117364802044 1.8495241546175 1.5342606561525 2.0525348929235 1.8259067809902 2.0403291295345 1.8425161501565 0.7256375728391 1.1828801130909 1.2947765265531 1.1443632154907 1.0612695908095 1.1528084386689 1.2489166564702 1.4985812662615 1.1694896405452 1.2560114493852 0.86786917928713 1.0717991728972 1.979152350264 1.7411880251406 1.517559958652 1.1898452714238 1.0974802953943 1.1997106506094 0.9916190994969 0.2482613013243 0.72347578895753 0.59889433900344 0.84701598921046 0.56533484531637 1.7412573440888 1.6705154206109 1.3031632107474 1.2033307658113 1.3552192657173 1.1556827014353 1.1780227585564 1.2483455434818 1.1237991205813 1.1451154334814 1.1040189835201 1.2499863281857 1.3043482877845 1.0718138104184 1.1457969903673 1.1543933765539 1.1363658858364 1.075677631931 1.1161726182672 1.2203101076789 0.81786846550438 1.3807233356039 1.0505400150051 0.96180675632101 0.92585148239586 1.1656475374224 1.1269036422501 1.2235092049737 1.4990982400259 1.3986576075814 1.2108873971589 1.2135515653011 1.2315363826792 1.364652278152 1.2262632497708 0.87208562664826 1.0701657680537 1.0562993924214 1.1702352164871 1.0605394707579 1.2518199379432 1.1481564027273 0.98209919465054 1.0606206640992 0.9654214122803 1.0301761419799 1.1724637676071 1.2540893893005 0.9387926500241 1.356114917248 1.2978772033614 1.3070124757094 1.1342337931384 1.0809381354903 1.1353839782985 1.1866456998865 1.1292625533204 0.99875183066768 0.91181609801098 0.98095198214761 1.308626619842 1.3790217118128 1.1226901626288 0.98156385298274 0.86803826698539 0.92888043223248 1.0069659894137 0.89795070444162 1.0784562436949 0.92438467499617 0.95739388929008 0.8423260707136 1.0940611654673 1.287673157499 1.1099075304206 1.2484140957164 1.2470390116414 1.6866610663269 0.93967938074138 0.79814599368005 0.50098784643217 0.64999830244378 0.8551562100434 0.85960114048543 0.69519101531857 0.72832174510541 0.86303098905448 0.9408380158384 0.77288354328064 0.8336858841414 0.87457831914764 0.95862570806841 0.8554252902701 1.0030670091621 0.97987151728927 1.0698862667895 0.70384602406888 0.69387701402764 0.96815914749908 0.99802588855709 0.83136045976066 0.94646523845399 0.8366704472603 0.81732297107458 1.0502114846381 0.79195013618477 1.0830382142526 1.1152317192265 0.89192877286254 1.1245262325676 0.71186138782631 0.74658470542315 0.84288845289575 0.86600255049394 1.0704436677338 1.3020313574536 1.3332316514854 0.78187789111421 0.75604683336196 0.79121840659563 0.95690358565385 0.88918227191302 0.96006248031703 0.7892682077004 0.80026691192348 0.79970530624486 0.85988824134906 0.85987606987778 0.71489181104233 1.336710113588 0.73150364464194 0.7377840372691 0.75447832606223 0.7035839032353 0.69576827162459 0.66659023982959 0.73321926575448 0.78739337343602 0.74235231002987 0.71513001737407 0.75160021407975 0.74632779971588 0.620500674672 0.71648237529321 0.73526579690913 0.73895600900254 1.3961889247585 0.66416250855689 0.69768355249997 1.0513590416992 0.71139042420363 0.63495121226811 0.69689001531744 0.59831654944194 0.73667462178618 0.74638467901557 0.70216213220278 0.65450899430243 0.69304676322383 1.4256128736628 0.653453201009 0.6905983789184 0.64594752239566 1.2554697133927 0.77252173973958 0.68977094733147 0.78217972657322 0.76229356461903 0.68181174948667 0.63904376969557 1.1122392526995 0.60611290091759 0.64143442543197 0.60538687900223 0.64947768987657 0.69844419153447 0.67180536628597 0.62263879704018 0.65993764242877 0.60752691662992 0.62330732426414 0.78461239219453 0.65770540578564 0.6565827865617 0.84268100031323 0.62029032109911 0.70056395800289 1.00918870458 0.77616311499451 0.83168147478762 0.59628749109437 0.59527454269793 0.54800657806871 0.68074005411968 0.62363517667723 0.60248035687319 0.64803137662223 0.56020377469094 0.58131817500309 0.59063040360756 0.61388170012026 0.98934437585074 1.0998396583031 0.56490892686967 1.2065423649085 0.57456362220762 0.477470604774 0.54953202927812 0.99325449491118 0.53502479028074 0.76355979280387 1.0990827476167 1.4726272239829 0.6668851179649 0.56914765547178 0.59083836401274 0.63106500585636 1.5531272296612 0.48936343056067 1.5202620803534 1.1145952055946 1.6932493281329 1.3922462631204 0.87623987378736 0.98579721199455 1.5290673370492 1.3750467438683 1.4121696522963 1.2223414754637 0.85623838678842 1.2023110802607 1.067230270243 1.2575004367264 0.5388619755196 1.2400314447307 1.080630606764 1.1466713891213 0.84464933631935 0.9731075144377 0.75438611754933 0.838537865931 0.97266760954532 1.1308269278183 0.9496535902888 0.4160075882603 1.4914259619293 1.2622119849789 1.1207225743095 0.82839180991029 1.3251592896267 0.18528029610165 1.0245711728246 1.4054850722672 1.2622374586212 0.99343540241558 1.1713853413652 0.79364011067166 1.3738641447749 0.61925918710498 0.98848527812256 0.74622142440681 0.64285503666284 1.4794706914913 0.95669800403774 1.6885527761304 1.5533618204539 1.479716112698 1.1206479091228 1.3469321876732 1.359534144324 1.1074910928795 1.2257275894669 1.1754964763376 0.89857981234386 1.6110773331596 0.77726715350961 1.4087625934098 1.2552856854829 1.3316657007722 1.3463213884509 1.3098076166372 1.2721316068476 1.0974851930223 1.1684408867553 1.3397737834908 1.2794340207148 1.2422155639855 1.2693441662439 1.16696039929 1.2764610771711 0.92135731640484 1.1805430182355 1.2495022685184 1.1438622952278 1.3033547667152 1.1496461451324 1.0693888183312 1.1803642612591 0.9174989837134 1.1426361712872 1.0737825591487 1.0656168203268 1.3043329235904 1.2618793719828 1.3251646376402 1.3439208928381 1.130653176268 1.2423799082277 1.3329667997592 1.8039535148168 0.92336936016432 1.3423520536538 1.0208226863653 1.0186518182923 1.2409692859393 1.3180924915028 1.5277931770828 1.4008474498534 1.1394812780542 1.1737856049767 1.0066468668391 1.1504108071583 0.99070242560817 1.3321295379836 1.3098194781963 1.3956417143528 0.97198718748207 1.3209178029879 0.97349553867678 0.92464679302014 1.0408620985488 0.85614423831551 0.90081266168528 0.95618388337845 0.98897210986161 1.1205733556723 0.68590795347023 0.86161345754575 0.95394100671434 0.89460821487266 1.0733045823439 1.0311713608106 1.0331893777407 1.0006798406222 1.2624564082613 0.62646643468181 0.85275495495668 0.98536750938763 0.97823574276414 1.0615391933602 0.85405307256091 0.92472528812273 0.49332934716495 0.61893890810118 0.98238266924594 0.69575817665927 0.38867022829466 0.76765882484762 1.3634821718653 0.54415954712021 1.2150210286937 0.48873236042498 0.52283504778392 0.70257539567557 0.59947489441267 1.0646510373237 0.50116538235825 0.55751118536393 0.50966294905017 0.51338941036839 0.63518351478318 0.75460310469215 0.7571922940061 0.81340870654412 0.66111591649296 1.0918853003089 1.312303457233 1.1794430177182 1.1697027997834 0.8591514657669 0.62091803176884 1.0075547038801 0.98007932000748 0.92963787055562 0.83240914973395 0.2914910972772 1.2913902686875 1.2383991973546 1.1715300615833 0.3777936723563 0.8760224480494 0.59956094010542 0.52940219667016 0.79447238059843 0.80154782929466 1.0498389719958 1.0040714673084 0.55214002659532 1.3947115869685 1.2632984782753 1.3125828748427 1.112355216164 0.99373164666174 1.4484785367136 1.2098297598296 1.2467805110001 1.2124652183176 1.1068902960886 1.2031163005728 1.0611330965656 1.3074510947862 1.0768934245713 0.90441712562876 1.1172232799216 0.98410147249482 1.2324700558616 1.0169260190982 1.2819774518219 0.83616746310708 0.91631633755165 0.98022742151166 0.69392567795993 0.90435045403588 0.98372552724627 