# vtk DataFile Version 3.0
d-2__ created by libgimli-v1.5.0-1-g5991b6ac
ASCII
DATASET UNSTRUCTURED_GRID
POINTS 3065 double
14.646647106361	10.075660810886	0
14.704832811816	9.9744824778853	0
14.741572761215	10.143570688214	0
7.2181179570912	12.323267801616	0
6.9022853070009	12.159878277929	0
7.188568129403	11.864968865302	0
12.573766225573	8.2541691958959	0
12.179090385116	7.8396649872294	0
12.486344232856	7.7791041952802	0
10.909490913954	12.100065284392	0
11.157527929117	12.134706706046	0
10.807865018668	12.328963878518	0
10.246630703596	12.451261426896	0
10.370786380608	12.571785344107	0
10.283370652996	12.620349637225	0
23.486823884586	4.2589561787297	0
23.872774184789	4.3331786567402	0
23.693453371076	4.6788038393608	0
9.4017034496321	12.989518397958	0
9.459889155087	12.888340064957	0
9.4966291044861	13.057428275285	0
8.6528831969526	9.1661723501876	0
9.0889129509339	9.1546198128334	0
9.0172223973042	9.5848707535605	0
4.95	14.894536113346	0
4.9002967662305	14.698789777549	0
5.05	14.834347813918	0
7.8357302798552	13.980149844525	0
7.7483145522431	14.028714137643	0
7.7115746028439	13.859625927314	0
7.9373561751407	13.751251250399	0
9.2631921819019	12.842543338384	0
9.0547266763919	13.085654315995	0
8.8463136869378	12.696007878209	0
6.9615730037337	14.465792775704	0
6.9945996683525	14.319328169198	0
7.136404458958	14.368664189468	0
21.8222466978	6.2098629456668	0
21.734830970188	6.2584272387846	0
21.698091020789	6.0893390284563	0
9.5840448320983	13.008863982168	0
20.073932145557	7.181148808024	0
19.986516417945	7.2297131011419	0
19.949776468545	7.0606248908135	0
8.1805694002704	13.571297247173	0
8.3602246455282	13.688764085818	0
8.1853931903038	13.785892672053	0
20.765748039212	6.6761602926357	0
20.627236771482	6.5291852330617	0
20.823933744667	6.5749819596349	0
8.5857318789655	13.373982996136	0
8.5275461735105	13.475161329137	0
8.3890349057803	13.328186269563	0
9.2343819216497	13.203121154639	0
9.0595504664254	13.300249740875	0
10.311662072528	12.260060065814	0
10.363276453366	12.455311173661	0
20.948089421678	6.6955058768454	0
21.049715316964	6.4666072827198	0
7.6608988246309	14.077278430761	0
7.653388897389	13.960804260315	0
28.908739718026	5	0
28.508739718026	5	0
28.708739718026	4.8492605261212	0
13.77248983024	10.561303742065	0
13.830675535695	10.460125409064	0
13.867415485094	10.629213619392	0
12.119100932851	11.60049948175	0
12.082360983452	11.431411271421	0
12.206516660463	11.551935188632	0
27.358739718026	4.8945361133462	0
27.309036484257	4.6987897775495	0
27.458739718026	4.8343478139176	0
22.57224829691	5.6036960972777	0
22.798029869207	5.4953214203625	0
22.696403973921	5.7242200144881	0
13.080673936584	11.066292257453	0
12.956518259573	10.945768340243	0
13.18229983187	10.837393663327	0
28.458739718026	4.8343478139176	0
28.408739718026	5	0
12.308142555748	11.323036594506	0
22.547801874951	5.2633883138599	0
13.63397856251	10.414328682491	0
12.024175277997	11.532589604422	0
12.031685205239	11.649063774867	0
15.703145764949	9.6093634639172	0
15.615730037337	9.657927757035	0
15.578990087938	9.4888395467067	0
12.444587677104	9.0315078187863	0
12.75	9.25	0
12.46875	9.40625	0
10.45820210822	12.523221050989	0
14.654157033603	10.192134981332	0
17.902749122926	8.2149218349628	0
18.150786138089	8.249563256617	0
17.801123227641	8.4438204290885	0
11.332359384341	12.03757811981	0
11.244943656729	12.086142412928	0
11.237433729487	11.969668242483	0
17.130607666996	8.4717569577762	0
17.327304640181	8.5175536843494	0
17.269118934726	8.6187320173503	0
12.018062834866	9.3144627641309	0
16.96875	6.90625	0
16.518062834866	6.8144627641309	0
16.944587677104	6.5315078187863	0
12.759821286388	10.899971613669	0
12.551355780878	11.14308259128	0
12.342942791424	10.753436153495	0
16.577303041071	9.1237205327386	0
16.453147364059	9.0031966155281	0
16.678928936356	8.8948219386129	0
21.923872593085	5.9809643515411	0
14.508135838631	9.9286857513121	0
8.7098875559768	13.494506913346	0
8.6224718283646	13.543071206464	0
7.5190940340254	14.02794241049	0
-0.24940646753892	14.834347813918	0
0.05	14.834347813918	0
0	15	0
2.3	15	0
2.2	14.888006064741	0
2.4	14.810067208388	0
11.507190839566	11.940449533575	0
11.36538604896	11.891113513304	0
11.502367049532	11.725854108695	0
0.1	15	0
0.3	14.849260526121	0
0.5	15	0
-0.95957299032574	12.742247653798	0
-0.63660515661073	12.736198774421	0
-0.72105850144488	13.237141247116	0
2.9	15	0
2.7	14.849260526121	0
2.95	14.834347813918	0
1.2	14.888006064741	0
1.3	15	0
1.1	15	0
1.9	15	0
1.95	14.834347813918	0
2	15	0
23.155770102009	4.4707815868157	0
23.398627607885	4.6419549088128	0
22.971047224781	4.718656217856	0
13.779999757482	10.67777791251	0
10.633033563444	12.426092464753	0
10.491228772839	12.376756444483	0
10.628209773411	12.211497039873	0
2.0997032337695	14.698789777549	0
2.05	14.894536113346	0
8.8115134512622	13.265608319221	0
7.6871281808847	13.519318143897	0
3.05	14.894536113346	0
3	15	0
1.05	14.894536113346	0
1	15	0
25.508739718026	5	0
25.458739718026	4.8945361133462	0
25.608739718026	4.888006064741	0
0.95	14.834347813918	0
0.9	15	0
23.708017310135	5.0679061559452	0
23.57570494199	5.2584272387846	0
23.492391392804	5.1534065041647	0
6.5387045333462	14.528279940285	0
6.7500015991102	14.393833151611	0
6.7867415485094	14.562921361939	0
7.4860673694066	14.174407016996	0
7.3112359141823	14.271535603232	0
7.3148706664546	14.058847515876	0
6.0874157276122	14.951435706882	0
6	15	0
5.95	14.834347813918	0
13.954831212706	10.580649326274	0
7.5148776296588	13.813829200741	0
11.889880414633	11.599727754597	0
6.8666473488796	14.397882898376	0
6.8741572761215	14.514357068821	0
1.4	14.810067208388	0
3.95	14.894536113346	0
4.05	14.834347813918	0
4	15	0
3.1	15	0
12.993258208972	11.114856550571	0
12.898332554118	11.046946673243	0
12.90584248136	11.163420843689	0
3.9	15	0
4.1	15	0
2.1	15	0
5.1	15	0
5	15	0
7.1315806689246	14.154068764588	0
5.9	15	0
5.3	14.849260526121	0
4.6070433069999	14.368240644588	0
4.6	14.810067208388	0
5.1938980518111	14.524993056905	0
1.0997032337695	14.698789777549	0
25.708739718026	5	0
4.7	15	0
4.5	15	0
24.408739718026	5	0
24.316180298466	5.0287141376427	0
24.321832839145	4.8833962425865	0
24.708739718026	4.8492605261212	0
24.508739718026	5	0
24.458739718026	4.8343478139176	0
23.483145522431	5.2871413764274	0
11.573663228844	6.6878504141764	0
11.783228215591	6.953244789404	0
11.498511972069	7.1356956560705	0
25.308739718026	5	0
24.908739718026	5	0
25.108739718026	4.8492605261212	0
25.408739718026	5	0
25.358739718026	4.8343478139176	0
15.520804382483	9.5900178797075	0
15.528314309725	9.7064920501529	0
25.921540276389	4.4709363375124	0
26.277022110672	4.3098125374061	0
26.309036484257	4.6987897775495	0
21.069293459246	4.0184782266431	0
21.444587677104	4.0315078187863	0
21.46875	4.40625	0
25.214841666215	4.524993056905	0
25.508442951795	4.6987897775495	0
23.395729794819	5.3357056695452	0
23.358989845419	5.1666174592169	0
29.8125	2.6258505226016	0
30	3	0
29.625	3	0
5.8122409423352	10.291228465074	0
5.9889649985263	10.545789285321	0
5.5715926789368	10.688360310892	0
12.278524372398	8.4033099465931	0
12.266749266227	8.7424709281467	0
11.71080923903	8.5533847165846	0
26.458739718026	4.8343478139176	0
26.358739718026	4.8945361133462	0
23.147692779655	5.301064247891	0
23.04606688437	5.5299628420167	0
11.120787979718	11.965618495718	0
26.408739718026	5	0
26.508739718026	5	0
26.708739718026	4.8492605261212	0
9.409213376874	13.105992568403	0
30.458635160201	3.8690920654536	0
30.669330384347	4.1196162860905	0
30.364109258215	4.2441307961306	0
28.358739718026	4.8945361133462	0
27.408739718026	5	0
27.508739718026	5	0
25.6875	2.4642195584136	0
25.771866335589	2.1927504712561	0
26.053487503597	2.1539862920131	0
25.384151503975	2.7152844425934	0
25.6875	2.76491822766	0
25.5	3	0
9.2674085862685	13.056656548133	0
27.708739718026	4.8492605261212	0
28.308739718026	5	0
15.382293114753	9.4430428201335	0
29.308739718026	5	0
29.358739718026	4.8343478139176	0
29.408739718026	5	0
1.8061019481889	14.524993056905	0
29.658146185565	4.8343478139176	0
1.7	14.849260526121	0
1.5	15	0
30.090078193556	3.9711909286582	0
15.173827609243	9.6861537977444	0
15.3534828545	9.8036206363886	0
15.178651399276	9.9007492226244	0
18.23069193846	8.0845247930538	0
18.238201865702	8.2009989634992	0
18.11404618869	8.0804750462887	0
4.8	14.888006064741	0
4.9	15	0
16.402471585846	9.2208491189743	0
16.394961658604	9.1043749485289	0
16.489887313458	9.1722848258564	0
6.1791038580454	14.704649136022	0
17.36404458958	8.6866418946778	0
17.451460317192	8.6380776015599	0
3.6	14.810067208388	0
3.7	15	0
3.5	15	0
16.922142161486	8.7148679353872	0
16.4287009421	8.6628888321103	0
17.302858218222	8.1772459009316	0
17.553086212478	8.4091790074343	0
14.056457107991	10.351750732149	0
14.828988488828	10.095006395096	0
5.5	15	0
5.7	14.849260526121	0
21.1875	4.5625	0
20.90625	4.71875	0
20.882087677104	4.3440078187863	0
6.8150329680421	14.202631790528	0
6.4739761191302	14.193291511538	0
15.804771660235	9.3804648697915	0
14.930614384113	9.8661078009702	0
4.3	14.849260526121	0
19.199774869435	7.6667917392027	0
19.112359141823	7.7153560323205	0
19.075619192424	7.5462678219922	0
9.9706052236163	12.250719786823	0
10.035333637832	12.585708215571	0
20.860673694066	6.7440701699633	0
20.773257966454	6.7926344630811	0
9.6856707273838	12.779965388042	0
-0.43250979015094	13.369587523725	0
-0.85662454898514	13.581460773951	0
22.514062591455	5.7048744302785	0
22.375551323725	5.5578993707045	0
20.742913400511	4.047377368749	0
21.292928542093	6.286653279494	0
21.472583787351	6.4041201181382	0
21.297752332127	6.5012487043739	0
24.1875	2.7176993931111	0
23.626112873365	2.548251847651	0
24.1875	2.3788043021908	0
21.958672828761	5.41136391053	0
22.167085818215	5.8010103483154	0
21.673644598829	5.7490312450385	0
20.175558040842	6.9522502138984	0
19.891590763091	7.1618032238144	0
19.899100690332	7.2782773942597	0
19.017433486969	7.647446154993	0
18.878922219239	7.500471095419	0
18.325617593314	8.1524346703813	0
6.2866035579579	13.872661794752	0
6.1724083866651	13.36768415665	0
[...]
CELL_DATA 5846
SCALARS Coverage double 1
LOOKUP_TABLE default
2.4099007660705 0.86295081579377 0.75406474525804 2.3210398238063 2.8668406243862 1.3844454801528 2.4138871614336 0.63294083573601 1.907499680668 2.8211320763514 2.2889738822112 1.9732517479374 2.3349926386576 2.8277892072516 2.8629172989446 2.8521571019836 2.2311799580865 1.949670257865 2.0257136250928 2.2516589999191 2.0403713074238 2.2772503036144 2.8589600260291 2.007904965697 2.4418418161974 2.8802910273438 1.6682404086958 2.2457290122143 2.3605646543533 2.6714758472485 2.3489525406408 2.0072366196102 2.0688492691919 2.9018720192243 2.8821455978447 1.0207703336915 2.3734316750225 2.8998798074348 2.9352912151293 2.3165250520952 2.9073633252477 2.0338310384857 0.98002619112449 0.97850858327841 2.4129473934794 2.0069958038771 2.3472164783995 2.262032491895 2.0580317271577 2.8399979553333 2.4110836207301 1.4890376423858 2.0944547009984 2.2877054691158 1.8185216075207 1.7853905396118 2.4186540543304 0.17295715361311 2.1898058118466 2.190490487436 2.7100183861158 1.4004784961686 2.9399698209081 2.2925662074212 1.7814359487853 2.2006041080078 2.0406738937082 2.2598039531101 2.1511167829689 2.713124659292 2.2711395683529 2.6947149182971 2.3095438535258 2.2984232460283 2.2211070521613 2.7409455249047 2.4883244677214 2.9145881240321 2.0148602149795 2.4505602976964 2.2464217721368 2.0415467228628 2.2191178860653 2.7557036413265 2.4534462279073 2.9228498981683 2.7684519648042 2.7195350732671 2.4502273278947 2.222889341549 2.755959507965 2.2102168933359 2.5307619561957 2.229962105426 1.8668533909082 1.9982887277629 1.6424096613242 2.2774279838613 2.8256145488692 2.4023227095929 2.2160954832337 2.0624737373603 2.132882742664 2.8509810981604 2.24378037621 2.8815921516217 0.54234074115078 2.1220054621023 2.7057851385197 2.9123464092404 1.5416639995197 0.85576385554276 1.7321908744866 2.8522466429288 2.7495156941884 0.26039125963931 1.9977416084606 0.56284434695376 2.2116813143991 0.8194050993344 1.7322606240099 2.2141738862052 2.3948742038197 2.1708717102428 2.1350458994234 2.8929165867714 0.50948603985442 2.1455665340589 2.6877114289459 0.49020215088554 0.62052890550738 2.4097985888175 2.3002279846995 2.1031109359756 2.6752159490989 2.0410547882387 2.8709096690985 2.2644485724569 1.7234807043802 1.5455819797149 2.1142863629912 0.50113120572658 2.8957231409929 2.2829029907919 2.166843554348 2.4294799290318 2.2977550512905 2.8032164790026 2.9238148058207 2.8901352511982 2.0714533447057 2.7207989024644 2.8872204359864 2.0923885789555 2.1092135203979 2.1934712939914 2.1138788294513 2.4195352364314 2.8119232121574 2.1526432035091 2.3696227524792 2.9097986875274 2.2958285509078 2.1673850621776 0.94297457914465 1.9224494384 2.4015451270945 1.8381370290113 2.3532524047231 2.3709025208825 2.837605328485 2.1866138814645 2.860477703617 2.1123191608867 2.8669228685886 2.834875953744 2.3324634371554 0.35659705898036 1.9062709068743 0.80963088175952 2.1729121461545 0.59113437541958 1.8120218480523 2.3011467332103 2.8894744022252 2.0586347124825 1.9970474677074 2.9060853926167 2.4187827812255 1.3169821494264 2.3228913335732 2.2821477952624 2.8940637926888 2.0627233733796 2.3719589712382 2.3113668261007 1.6183782761184 2.8708353692141 2.3153594595678 2.3668133414966 0.36999947863326 2.2803608773598 1.9282994558033 2.4284304033099 2.2272305878731 1.6240745055034 1.4880441232585 2.697857085406 1.5107487956789 2.6974824936536 2.7177371403403 2.8745087229095 2.344921689719 1.785944768632 1.9779598596035 2.9218809507142 2.4102751074694 2.4358873722606 2.1264261455091 2.4470571945056 2.292299726901 2.3601457408013 2.1975443358437 2.3806843093464 2.2103014480909 2.452659215034 2.2955444046088 2.4367419646523 2.1250908407965 1.8406629740873 2.1170088072248 2.2490298103064 2.2604725308415 2.810438687203 2.8446197694849 2.8582010954281 2.3124619439687 2.1235924740641 1.9375082947255 2.1660393882719 1.9950972538558 1.9662127155095 2.0821976181161 2.2240104566159 2.3958204078149 2.3888338416872 2.4356978775064 2.4243108584853 2.2613563999177 2.3184681167279 2.1377609429983 2.3457753309791 2.0288097078329 2.3154919149216 1.9788085689449 2.0533372341464 2.0691565592845 2.3730219935141 2.41707953918 2.2703183171309 1.8739123467321 0.65103516667351 1.9156051942699 2.1610160929837 1.7826184785063 1.9782845018263 2.3367600393474 1.7655035385083 2.1350477780705 1.8305886175798 2.4563605549938 2.0380735060901 2.1312967532374 2.4629504046913 2.4732482511667 1.4185692843159 2.0524663532283 2.3885008892979 1.9314905718324 2.0856641502264 2.4121447102459 1.8570596252968 2.1277379334935 2.4796787451184 1.0364190369825 1.9368328742083 2.4675509698339 1.873119497649 1.8204460722227 2.1539360628038 0.70975442198085 1.8736526010418 2.1964851175129 0.89471504916543 1.9823224936365 2.2524419141043 2.4541240131089 2.1768165144516 2.0032585628522 2.3530357308527 2.0486817933002 2.2891750613418 2.3761872459865 2.3429412842158 0.70765021006556 2.1225433120972 2.3842009078114 2.3610138465138 2.4018328137537 1.9683485858599 2.2010753606164 2.0490655543992 2.2681568660904 1.9359616176952 1.5911324446733 2.22377941143 2.2427682039084 1.9251091097013 2.1587075595849 2.2406423802472 2.0830685740702 2.1622024776743 2.0601419409368 2.0127957221009 2.0264705782041 2.183733449537 2.2474272599784 2.3479779170861 1.9340196350875 1.5240256224426 2.2519284210177 2.3530651989454 2.1612974955271 2.2729757387584 1.3189817706072 1.5622008287071 2.1704911104458 2.2812506321189 2.2496877749802 2.3476526504872 1.8636170873578 0.87111204923646 1.8979438395241 2.3019003393682 2.0499410241537 1.9549279316336 2.0857512730456 2.4208926268969 1.3826382498332 2.0226661561164 2.2252600808719 2.2189956005665 2.324432801761 2.1012521005234 2.2243683392504 2.1173977879756 2.4449006675281 2.0128849341417 2.075457859535 2.1144903244511 2.0485220046244 2.2362411496885 2.3306503487468 1.8862005099767 2.2025164357719 2.1781031831779 1.4182676490192 2.2195770370795 1.3959951451289 2.2342015065218 2.3306524862505 2.1312406850995 2.2442273786062 2.0697399255089 2.1175507478507 1.9277487466897 2.2815288560432 2.1752720358749 2.2398166003951 2.0834828007022 1.9901459983297 2.0896726204282 2.0374546558509 1.4728708930852 2.4196333562034 1.9009744968271 2.4409956448275 0.82948590889149 2.1853860567793 2.2752697192147 1.8982338276719 2.2050081551806 2.2552869837251 1.9919840328927 1.5529136375089 2.0973963730138 1.8757310632231 2.0999934532512 1.9717188098104 2.0289542231241 2.2028303259145 1.2368411589875 2.2492478583944 1.8374200302477 1.8360009668564 1.1593166090604 1.9907414261573 2.3211380510993 2.2151478480056 2.0793755405066 1.7966888932514 2.1572318640112 1.9875851029838 2.3013588944304 1.9713254706751 2.3044285572783 1.9940581873985 2.3156507386759 1.9081138788214 2.217079822182 1.8012897160166 2.2365982703932 1.9859847857554 2.3219741345987 1.985161994543 2.3090343543114 1.6317937875989 1.9610272696972 1.6887813812927 2.0120905061174 1.9675204788956 2.2864716504062 1.8654368365939 2.1640580357187 1.8808747320549 2.1991663841231 2.2262888644864 2.2707419601989 1.9196886262798 2.0235611034573 1.9642600073578 2.31294336764 2.281810183484 1.7909822518895 2.2538493400547 1.6982569971481 2.1084295124721 1.8261171600947 1.5468224846089 2.1566723644814 1.7866646493167 2.1206445413893 1.8503268943141 2.1370843648808 2.0789204149609 1.9375638526605 1.8771890493125 2.1313661376652 2.0140645345017 2.0316178638961 1.4877002900946 1.8256149592507 1.8017518481044 1.8070910183675 1.7819678375676 1.9667886411827 2.3328412775816 2.182041744427 1.8304295644978 1.8387150313036 2.2477164380472 2.0581565328911 1.8845395123724 1.9584862253211 2.3439254675808 2.2149234102586 2.0813702364258 1.0417101375447 1.1820964606212 1.1269507784915 1.0351423542421 2.246636852955 2.1151402155818 1.9477551659833 2.2912971172395 2.1980803454426 2.0371841850056 2.2502937924919 2.1026457737108 2.208158014374 2.0421381242867 1.9676421435595 1.5160364780294 2.1197789537396 1.9505755178828 2.0719338924399 2.0308730630835 1.9941784691261 1.8270692676067 1.9788031917992 1.8695333464965 1.9301602596599 2.2427284891845 2.141094599586 2.2020514432613 2.2532231081893 2.1324386051567 2.2065023928678 2.1564686009521 2.0639061728648 2.1050087544495 2.1923107213144 1.9318819221603 2.1302182756935 2.2686977922957 2.113305487473 2.2152317344393 1.9033112078412 1.8562410012887 1.8276910837411 1.9478717274061 1.8918689889907 1.8948792061735 2.2487561115096 2.16544972208 2.0073309090279 2.2403204296213 2.1125582673543 2.1829119049282 2.1270210962342 2.0322132784858 2.0538720706089 2.2283823281652 2.1895477430249 1.5965602129723 2.2244400780297 2.0468464123732 2.1733499083871 2.2682358220782 2.1140762788322 2.2115307436661 1.9877866479927 1.8843131844676 1.4353114109567 2.2495078840289 2.1184865827304 2.200262833725 2.1432032697164 2.046122691597 2.0878920387011 2.0811929567304 2.0959626250215 2.035525016584 2.0459242836473 2.0248379972239 1.8637580975727 2.202358007724 2.0569956533855 2.1509220857473 2.2383223920637 2.0662548000772 2.1845749812069 2.2275547365218 1.9363475779035 2.1694547814847 1.8714795569186 2.0585009165767 1.7396167428964 1.6325919657702 1.6536748063757 1.2485620156535 1.9368071131774 1.9939271614997 1.9428496546341 1.7813528292794 2.0367405737839 1.6817572858117 2.071180487236 1.7042622333904 1.3789919607512 1.5524941077048 1.5482448510608 1.8212435911383 1.3988857029558 1.5715887826404 1.7070809173094 1.6105931703531 1.7585847259616 1.5296526550139 1.9929595189812 1.437782704759 1.8308993917055 1.6749726912619 1.8971500608605 1.881766794448 1.9733024084271 1.8191653173251 0.98893241923654 1.7171662538132 2.0760500365798 1.7206611305797 1.8029990282712 1.6268723201198 1.7576474872133 1.665507906037 1.9738351580139 1.7362272310833 1.7983706767096 1.3116641213185 1.9718040322494 1.3797319697429 1.6044525204536 1.5367680128677 1.9179523165602 1.9492313512223 1.9100052970005 1.7984725276043 1.8567195331914 1.8275685177638 1.6093272846649 1.9159584431908 1.7571965860437 1.9800815233727 1.8256225900562 1.8390891317648 1.6024210617556 1.569088314337 1.7553759219462 0.8101312773429 1.6276094600568 1.647129288182 1.8090926074699 1.0170217032106 1.7899093989631 1.0802250374781 1.9813663148552 1.6899686360075 1.3772308551002 1.767715475065 1.2882192918587 1.3658786772624 0.71892774315137 1.0118149183066 1.3602255347498 1.7800660430562 0.47607668841874 1.6593889751322 1.1744365132633 0.91533612060872 0.44653347474059 1.0777394175227 1.2735968024833 0.75675232439216 0.48255979369189 1.4302458352465 1.3956447695746 1.3418923513307 1.9968163068537 1.7875484686428 1.677598733794 1.483329363631 1.4977630375925 1.7949894254828 1.9535145770575 1.2794472678212 1.4795140921542 1.5457429250906 1.7768969688942 1.0140701856122 1.6260753404915 1.7980736847129 0.87716553403041 1.0888945755882 1.2881584630121 1.0136483258414 1.4715315300505 1.80910672393 0.79843285698575 1.4596417682852 1.6846277373136 1.5848201366511 1.4889828792284 1.8390601539661 1.1869927402461 1.0231309253152 2.0028568061727 1.3846685665843 1.3876102190733 1.3773311321287 1.4289600722459 1.563553193851 1.6280850948292 1.6483543076768 1.4194214335659 1.3470168235879 1.5972324495946 1.4137782052818 1.5782339475056 1.4979872636806 1.5526602550526 1.8670182292943 1.4237342038222 1.388914153487 1.2185633084313 1.1461016643357 1.6305141224531 1.4126316461653 1.5690490877914 1.7518336520809 1.8911151297792 1.4337832514244 1.1063947052517 1.3490014178127 1.2919031717671 1.0847367496845 1.3887476539187 0.98681131552018 1.6951020252412 1.0258635678728 1.6173519290159 1.5303003531485 1.9672135763538 1.6981746767149 0.95198577192578 1.8364971580409 1.6889326814466 1.527672818263 0.42638571687476 0.57616358023306 1.3948279014385 0.95167520687041 1.4804064080761 1.0306088671748 1.4088686998837 1.5700821603849 1.9257074554232 0.88333503468782 1.4535508885689 1.2005836748955 1.2133887180767 1.4650805528566 1.3934137893729 1.3666898455159 1.2951879730365 1.4957742440864 1.3323527909628 1.5022943131241 1.1229232649168 1.1967957263227 1.2287552195772 1.4695022356315 1.5003392020075 1.2488049054088 1.6484620281765 1.4642083813326 1.3542189010751 1.5843769659434 1.3671245132224 1.543048065874 1.251997158304 1.628179086612 1.4832861533893 1.6275742605485 1.3998951006678 1.4773881482771 1.5932539072003 1.2861588358023 2.018678605388 1.4767062601477 0.9202319948616 1.4688940526351 1.3814532768458 1.7085271437303 1.2443498449417 0.99456200496367 1.1579252573326 0.89762078646885 1.8237410502127 1.0251256949182 0.93571114725814 1.4412471151639 1.3810440364171 1.4128340035117 1.8952655032708 1.5482013387725 1.6868966576688 1.4250484966014 2.0300017111222 1.8215244440641 1.4419819882109 1.3759938905463 1.4275577961885 1.0172244168425 1.424029427631 1.5133931604995 1.5529396677416 1.4338813697068 1.4282693470944 1.5114167779724 1.6961581608062 1.8998670187757 1.4354631463779 1.3701904601682 1.4945853546873 1.4713873478396 1.7439760094308 1.7178668794917 1.210413548343 1.6377935694824 1.5038782546225 1.2220507835062 1.229358390511 1.1731722252322 1.1361423659329 1.1828273919595 1.5178571513824 1.4547220818559 1.5198307775749 1.5124146474577 0.96321798517882 0.8246693570756 0.90995048057036 0.89845919104693 1.3447307681287 0.89874341578722 1.2391628742037 1.3083295991373 1.2485334930626 1.4400085115537 1.2305833527117 1.1906916898237 1.1303261988469 1.173741510951 1.1921000907305 0.69738584426665 1.1573959960035 1.0434192740553 1.2334194443457 1.3492757936511 1.0031192040553 0.68065766030546 1.134290273115 1.1628176900669 1.0168765368195 0.98523389479063 0.85111461994932 0.85734230181841 0.94538052477116 0.73870752302285 0.83568240341 1.4275964104767 1.2406510866028 1.1388582250614 1.3907353392935 0.74870114764178 0.92353108550873 0.97461291033847 0.78538456981296 0.83474072274686 0.82556863692016 0.78036057334608 0.70344455655461 0.97957088037309 0.87606882297664 0.93365208341718 1.5363922912625 1.1660799140865 1.6807521052358 0.71922081325107 1.7100482642432 1.3774439433597 1.1241767188791 1.0568917467807 1.6607594229535 1.4899032848156 1.4289229963326 1.5496085848657 0.52742493898385 0.75043114693286 1.4377142511492 1.6426980712309 1.6591694057778 1.3614190259915 0.9551400327249 1.3905084974484 1.8411878355365 1.563752129574 1.6917369745496 1.3709617106574 1.4395864393088 1.374133535861 1.4340473311943 1.3468001273051 1.0540993358749 0.85456175430251 1.4390084342193 1.9255019095473 1.5051035675379 1.4916230867349 1.4557774505527 1.1702676594848 0.53864327947623 1.2080428551323 1.3679188978767 1.3326794027739 1.486663947434 0.84876983644277 1.4738621540359 1.4330103370914 1.4656374481379 1.4039566653147 1.3461690759456 1.4224982811943 1.3877077853591 1.4106246176604 1.4597899144513 1.4627740023571 1.370203468345 0.62934055256936 1.4496274263395 1.3765194509423 1.4503966619682 1.4356055491174 1.4492659219156 0.84645755275146 1.4655745156489 1.4353392539237 1.4698300035657 1.4235532725828 1.4749035465006 1.4328578568418 1.4804337873397 0.90737503543082 1.3822859160396 1.3623182819878 1.3788630081111 1.4315914360516 0.73792017845227 0.86606720886504 1.4553199491539 1.4576493356081 0.88871545374208 0.92191944149311 0.87142303506499 0.81630517644713 1.4227298004997 1.3715033007294 1.4670714616762 1.4799478853225 1.3960858556904 1.5002847741031 0.93253165699443 1.4029456252969 1.6376118492251 1.565514599943 1.4905423032503 0.89009853364957 1.4995389576444 1.4743303465987 1.5045288387592 1.4042417997028 0.82688649760841 0.83493808377526 0.84417774652089 0.90798314838926 0.77985006136247 0.93759110474673 0.7771593622418 0.82467516089067 0.7851026279121 0.77472039904549 0.83298629036561 0.86438015106949 0.7504610517339 0.75291767505327 0.80355665969826 0.88771370226563 0.78751621500089 0.79724449727397 0.71778638958207 0.66836953415053 0.77240803058623 0.79420089527654 0.69579087070764 0.69217543426677 0.7767818156966 0.86165947611648 0.78399086968289 0.76454326305316 0.84220896161924 0.74579095815955 0.76574805965079 0.97997962782743 0.74638563202159 0.70788946041672 0.73584814418705 0.8774838799403 0.64931307799571 0.73896932341158 0.70528447275757 0.71501283224571 0.97180175105688 1.5038525025345 0.77037106224145 0.68497631466704 0.62326265739697 0.66920973229939 0.74167321004117 0.69347442322556 0.67764783385317 0.69105815510672 0.63687621589965 0.93995771798505 0.61882151238388 0.57125574929032 0.70645948624584 0.67045364570548 0.80119433070963 0.95536515459762 0.79163417148243 0.77098859031881 0.70886230580555 0.65531780598877 0.65065744916102 0.67078709733388 0.6172445836679 0.65412658300266 0.65706164383399 0.60858003523479 0.71768296426229 0.66330168830764 0.59195831526978 0.53738232173909 0.82050498485141 0.69116463530593 0.59146145563267 0.66004588879002 0.91313611832203 0.91412610105114 0.85243431697769 0.73416746043218 0.59593906001879 0.65053994084614 0.82193093844001 0.74513024735974 0.83142912526377 0.89201815098183 0.75479542574655 0.68323477779738 0.8389333958729 0.79726215181248 0.8153270658872 0.73102619089131 1.4006602303822 1.3848422728015 0.56644713865223 1.0322127056124 0.54860819168173 1.0696703871594 1.060378357279 0.57172571002232 1.0356400843925 0.8424903259177 1.0342370629497 0.93919983675876 0.99360524522342 0.83299448299147 1.1027666381586 0.98546555581147 0.97953862440167 0.91926272263331 0.98722837464651 0.60853917893325 1.0702477083041 1.0673583514547 0.55216956799616 0.65506135350066 0.94128768477039 0.93633735231078 1.2297672144995 1.0967076224771 1.0971222081578 1.0230697290253 0.66527121000959 0.6121075886389 1.0426596619116 0.60135984903918 0.59663658858788 0.66665057288984 1.0685380478916 1.0602834372816 1.1329706838092 1.1294798548067 1.1402791672665 0.75851600931407 1.153442916131 1.0404342441335 1.1070020232659 0.54737290200449 0.575671481103 0.64478685650893 0.64210277366614 0.54830091316133 1.0203886323039 0.65458787520974 0.63745854141839 0.50790209929232 0.4794831945364 0.52037279396143 0.48747234182493 0.63723279089083 0.51441768878636 0.52130851593677 0.44281501952997 0.56029551992113 0.49736454253028 0.55566129742113 0.41006028731246 0.58716503197865 0.50133777859106 0.53716199321807 0.54916600120888 0.47318192294812 0.37856280830139 0.53226818168088 0.48926501651594 0.60243202103243 0.46374177974496 0.38845955277222 0.52170034184866 0.63817349464858 0.44171987772748 0.49080194994104 0.58985308837411 0.71317043722288 0.40718836882038 0.31133430767866 0.50297917186807 0.62596219812729 0.60149552750792 1.2704325092459 0.76575315585883 0.78894873869476 0.47742025574631 0.3568110244525 0.45436541247476 0.44174591412771 1.4505032072064 0.49049023603674 0.43938290633399 0.26311619649516 0.43056002192519 0.45594389138676 0.58328597060475 0.3966752267137 0.38682932115868 0.50667185769981 0.35247011279534 0.64185689216186 0.53478754530884 0.62827945687773 0.49366888054234 0.61490505323549 0.38611781004681 0.32283572241863 0.38179965659841 0.53824591055982 0.44746774219477 0.41071083669355 -0.12070937104985 0.41260425566912 0.31639908027195 0.29407470240231 -0.073497369625814 0.18763229350186 1.0441327984305 0.83699141245603 0.63173747363422 0.85932902572006 0.56452539907386 0.71051525634011 0.6296195316022 0.80431924888336 1.1880972108156 1.2447244094658 1.6666836308257 1.5106787991847 1.5071592214213 0.93439925778702 1.5067938665906 1.4406701746212 1.4858189479368 0.99010087219297 0.88681045873002 0.91532879215699 0.89089747949259 0.97190738008932 1.3907781072467 1.4358494259261 1.4012938599162 1.4003166468694 0.96607593229071 0.78584726365248 0.8813539071578 0.92572887655348 0.83294100562412 0.84194939725026 0.71560568004661 0.71946375732136 0.81759972466229 0.90767658665079 0.75540720082157 0.85380121662593 0.84737158709765 0.81417682803453 0.72232000580352 0.75769672762142 0.77741835296199 0.69207028602733 0.75805463030153 0.73968984503849 0.65347116554684 0.64873283407964 0.79874757326828 0.72276541957887 0.60348282726749 0.66538956565594 0.66343891881156 0.70106541203662 0.62524880133024 0.53861106284874 0.62606928393858 0.621224