# vtk DataFile Version 3.0
d-2__ created by libgimli-v1.5.0-1-g5991b6ac
ASCII
DATASET UNSTRUCTURED_GRID
POINTS 3065 double
14.646647106361	10.075660810886	0
14.704832811816	9.9744824778853	0
14.741572761215	10.143570688214	0
7.2181179570912	12.323267801616	0
6.9022853070009	12.159878277929	0
7.188568129403	11.864968865302	0
12.573766225573	8.2541691958959	0
12.179090385116	7.8396649872294	0
12.486344232856	7.7791041952802	0
10.909490913954	12.100065284392	0
11.157527929117	12.134706706046	0
10.807865018668	12.328963878518	0
10.246630703596	12.451261426896	0
10.370786380608	12.571785344107	0
10.283370652996	12.620349637225	0
23.486823884586	4.2589561787297	0
23.872774184789	4.3331786567402	0
23.693453371076	4.6788038393608	0
9.4017034496321	12.989518397958	0
9.459889155087	12.888340064957	0
9.4966291044861	13.057428275285	0
8.6528831969526	9.1661723501876	0
9.0889129509339	9.1546198128334	0
9.0172223973042	9.5848707535605	0
4.95	14.894536113346	0
4.9002967662305	14.698789777549	0
5.05	14.834347813918	0
7.8357302798552	13.980149844525	0
7.7483145522431	14.028714137643	0
7.7115746028439	13.859625927314	0
7.9373561751407	13.751251250399	0
9.2631921819019	12.842543338384	0
9.0547266763919	13.085654315995	0
8.8463136869378	12.696007878209	0
6.9615730037337	14.465792775704	0
6.9945996683525	14.319328169198	0
7.136404458958	14.368664189468	0
21.8222466978	6.2098629456668	0
21.734830970188	6.2584272387846	0
21.698091020789	6.0893390284563	0
9.5840448320983	13.008863982168	0
20.073932145557	7.181148808024	0
19.986516417945	7.2297131011419	0
19.949776468545	7.0606248908135	0
8.1805694002704	13.571297247173	0
8.3602246455282	13.688764085818	0
8.1853931903038	13.785892672053	0
20.765748039212	6.6761602926357	0
20.627236771482	6.5291852330617	0
20.823933744667	6.5749819596349	0
8.5857318789655	13.373982996136	0
8.5275461735105	13.475161329137	0
8.3890349057803	13.328186269563	0
9.2343819216497	13.203121154639	0
9.0595504664254	13.300249740875	0
10.311662072528	12.260060065814	0
10.363276453366	12.455311173661	0
20.948089421678	6.6955058768454	0
21.049715316964	6.4666072827198	0
7.6608988246309	14.077278430761	0
7.653388897389	13.960804260315	0
28.908739718026	5	0
28.508739718026	5	0
28.708739718026	4.8492605261212	0
13.77248983024	10.561303742065	0
13.830675535695	10.460125409064	0
13.867415485094	10.629213619392	0
12.119100932851	11.60049948175	0
12.082360983452	11.431411271421	0
12.206516660463	11.551935188632	0
27.358739718026	4.8945361133462	0
27.309036484257	4.6987897775495	0
27.458739718026	4.8343478139176	0
22.57224829691	5.6036960972777	0
22.798029869207	5.4953214203625	0
22.696403973921	5.7242200144881	0
13.080673936584	11.066292257453	0
12.956518259573	10.945768340243	0
13.18229983187	10.837393663327	0
28.458739718026	4.8343478139176	0
28.408739718026	5	0
12.308142555748	11.323036594506	0
22.547801874951	5.2633883138599	0
13.63397856251	10.414328682491	0
12.024175277997	11.532589604422	0
12.031685205239	11.649063774867	0
15.703145764949	9.6093634639172	0
15.615730037337	9.657927757035	0
15.578990087938	9.4888395467067	0
12.444587677104	9.0315078187863	0
12.75	9.25	0
12.46875	9.40625	0
10.45820210822	12.523221050989	0
14.654157033603	10.192134981332	0
17.902749122926	8.2149218349628	0
18.150786138089	8.249563256617	0
17.801123227641	8.4438204290885	0
11.332359384341	12.03757811981	0
11.244943656729	12.086142412928	0
11.237433729487	11.969668242483	0
17.130607666996	8.4717569577762	0
17.327304640181	8.5175536843494	0
17.269118934726	8.6187320173503	0
12.018062834866	9.3144627641309	0
16.96875	6.90625	0
16.518062834866	6.8144627641309	0
16.944587677104	6.5315078187863	0
12.759821286388	10.899971613669	0
12.551355780878	11.14308259128	0
12.342942791424	10.753436153495	0
16.577303041071	9.1237205327386	0
16.453147364059	9.0031966155281	0
16.678928936356	8.8948219386129	0
21.923872593085	5.9809643515411	0
14.508135838631	9.9286857513121	0
8.7098875559768	13.494506913346	0
8.6224718283646	13.543071206464	0
7.5190940340254	14.02794241049	0
-0.24940646753892	14.834347813918	0
0.05	14.834347813918	0
0	15	0
2.3	15	0
2.2	14.888006064741	0
2.4	14.810067208388	0
11.507190839566	11.940449533575	0
11.36538604896	11.891113513304	0
11.502367049532	11.725854108695	0
0.1	15	0
0.3	14.849260526121	0
0.5	15	0
-0.95957299032574	12.742247653798	0
-0.63660515661073	12.736198774421	0
-0.72105850144488	13.237141247116	0
2.9	15	0
2.7	14.849260526121	0
2.95	14.834347813918	0
1.2	14.888006064741	0
1.3	15	0
1.1	15	0
1.9	15	0
1.95	14.834347813918	0
2	15	0
23.155770102009	4.4707815868157	0
23.398627607885	4.6419549088128	0
22.971047224781	4.718656217856	0
13.779999757482	10.67777791251	0
10.633033563444	12.426092464753	0
10.491228772839	12.376756444483	0
10.628209773411	12.211497039873	0
2.0997032337695	14.698789777549	0
2.05	14.894536113346	0
8.8115134512622	13.265608319221	0
7.6871281808847	13.519318143897	0
3.05	14.894536113346	0
3	15	0
1.05	14.894536113346	0
1	15	0
25.508739718026	5	0
25.458739718026	4.8945361133462	0
25.608739718026	4.888006064741	0
0.95	14.834347813918	0
0.9	15	0
23.708017310135	5.0679061559452	0
23.57570494199	5.2584272387846	0
23.492391392804	5.1534065041647	0
6.5387045333462	14.528279940285	0
6.7500015991102	14.393833151611	0
6.7867415485094	14.562921361939	0
7.4860673694066	14.174407016996	0
7.3112359141823	14.271535603232	0
7.3148706664546	14.058847515876	0
6.0874157276122	14.951435706882	0
6	15	0
5.95	14.834347813918	0
13.954831212706	10.580649326274	0
7.5148776296588	13.813829200741	0
11.889880414633	11.599727754597	0
6.8666473488796	14.397882898376	0
6.8741572761215	14.514357068821	0
1.4	14.810067208388	0
3.95	14.894536113346	0
4.05	14.834347813918	0
4	15	0
3.1	15	0
12.993258208972	11.114856550571	0
12.898332554118	11.046946673243	0
12.90584248136	11.163420843689	0
3.9	15	0
4.1	15	0
2.1	15	0
5.1	15	0
5	15	0
7.1315806689246	14.154068764588	0
5.9	15	0
5.3	14.849260526121	0
4.6070433069999	14.368240644588	0
4.6	14.810067208388	0
5.1938980518111	14.524993056905	0
1.0997032337695	14.698789777549	0
25.708739718026	5	0
4.7	15	0
4.5	15	0
24.408739718026	5	0
24.316180298466	5.0287141376427	0
24.321832839145	4.8833962425865	0
24.708739718026	4.8492605261212	0
24.508739718026	5	0
24.458739718026	4.8343478139176	0
23.483145522431	5.2871413764274	0
11.573663228844	6.6878504141764	0
11.783228215591	6.953244789404	0
11.498511972069	7.1356956560705	0
25.308739718026	5	0
24.908739718026	5	0
25.108739718026	4.8492605261212	0
25.408739718026	5	0
25.358739718026	4.8343478139176	0
15.520804382483	9.5900178797075	0
15.528314309725	9.7064920501529	0
25.921540276389	4.4709363375124	0
26.277022110672	4.3098125374061	0
26.309036484257	4.6987897775495	0
21.069293459246	4.0184782266431	0
21.444587677104	4.0315078187863	0
21.46875	4.40625	0
25.214841666215	4.524993056905	0
25.508442951795	4.6987897775495	0
23.395729794819	5.3357056695452	0
23.358989845419	5.1666174592169	0
29.8125	2.6258505226016	0
30	3	0
29.625	3	0
5.8122409423352	10.291228465074	0
5.9889649985263	10.545789285321	0
5.5715926789368	10.688360310892	0
12.278524372398	8.4033099465931	0
12.266749266227	8.7424709281467	0
11.71080923903	8.5533847165846	0
26.458739718026	4.8343478139176	0
26.358739718026	4.8945361133462	0
23.147692779655	5.301064247891	0
23.04606688437	5.5299628420167	0
11.120787979718	11.965618495718	0
26.408739718026	5	0
26.508739718026	5	0
26.708739718026	4.8492605261212	0
9.409213376874	13.105992568403	0
30.458635160201	3.8690920654536	0
30.669330384347	4.1196162860905	0
30.364109258215	4.2441307961306	0
28.358739718026	4.8945361133462	0
27.408739718026	5	0
27.508739718026	5	0
25.6875	2.4642195584136	0
25.771866335589	2.1927504712561	0
26.053487503597	2.1539862920131	0
25.384151503975	2.7152844425934	0
25.6875	2.76491822766	0
25.5	3	0
9.2674085862685	13.056656548133	0
27.708739718026	4.8492605261212	0
28.308739718026	5	0
15.382293114753	9.4430428201335	0
29.308739718026	5	0
29.358739718026	4.8343478139176	0
29.408739718026	5	0
1.8061019481889	14.524993056905	0
29.658146185565	4.8343478139176	0
1.7	14.849260526121	0
1.5	15	0
30.090078193556	3.9711909286582	0
15.173827609243	9.6861537977444	0
15.3534828545	9.8036206363886	0
15.178651399276	9.9007492226244	0
18.23069193846	8.0845247930538	0
18.238201865702	8.2009989634992	0
18.11404618869	8.0804750462887	0
4.8	14.888006064741	0
4.9	15	0
16.402471585846	9.2208491189743	0
16.394961658604	9.1043749485289	0
16.489887313458	9.1722848258564	0
6.1791038580454	14.704649136022	0
17.36404458958	8.6866418946778	0
17.451460317192	8.6380776015599	0
3.6	14.810067208388	0
3.7	15	0
3.5	15	0
16.922142161486	8.7148679353872	0
16.4287009421	8.6628888321103	0
17.302858218222	8.1772459009316	0
17.553086212478	8.4091790074343	0
14.056457107991	10.351750732149	0
14.828988488828	10.095006395096	0
5.5	15	0
5.7	14.849260526121	0
21.1875	4.5625	0
20.90625	4.71875	0
20.882087677104	4.3440078187863	0
6.8150329680421	14.202631790528	0
6.4739761191302	14.193291511538	0
15.804771660235	9.3804648697915	0
14.930614384113	9.8661078009702	0
4.3	14.849260526121	0
19.199774869435	7.6667917392027	0
19.112359141823	7.7153560323205	0
19.075619192424	7.5462678219922	0
9.9706052236163	12.250719786823	0
10.035333637832	12.585708215571	0
20.860673694066	6.7440701699633	0
20.773257966454	6.7926344630811	0
9.6856707273838	12.779965388042	0
-0.43250979015094	13.369587523725	0
-0.85662454898514	13.581460773951	0
22.514062591455	5.7048744302785	0
22.375551323725	5.5578993707045	0
20.742913400511	4.047377368749	0
21.292928542093	6.286653279494	0
21.472583787351	6.4041201181382	0
21.297752332127	6.5012487043739	0
24.1875	2.7176993931111	0
23.626112873365	2.548251847651	0
24.1875	2.3788043021908	0
21.958672828761	5.41136391053	0
22.167085818215	5.8010103483154	0
21.673644598829	5.7490312450385	0
20.175558040842	6.9522502138984	0
19.891590763091	7.1618032238144	0
19.899100690332	7.2782773942597	0
19.017433486969	7.647446154993	0
18.878922219239	7.500471095419	0
18.325617593314	8.1524346703813	0
6.2866035579579	13.872661794752	0
6.1724083866651	13.36768415665	0
[...]
CELL_DATA 5846
SCALARS Coverage double 1
LOOKUP_TABLE default
2.4214143015504 1.0239993460305 0.84649436607471 2.3028876602004 2.8636422207972 1.3814108445595 2.4094359913771 0.70415741000254 1.8807458034599 2.8389438092187 2.280573716294 1.9477003882654 2.3497396732289 2.8376771348377 2.8791609715701 2.8601862327442 2.2047169559055 1.9376299773324 1.9952570274229 2.2157160307872 2.0021284338306 2.2758569627775 2.8679871428487 2.0425647879459 2.458143747035 2.8912470095152 1.6468726063677 2.2508016231105 2.3505488230141 2.6974439081393 2.3383124544472 2.0075479925316 2.0332313535481 2.905221371153 2.9001924264498 1.1834004185652 2.3653614662773 2.9100637862014 2.9521161075793 2.3105610447101 2.9213598726888 2.005073652801 1.1403504103082 1.101767446646 2.4199735057272 1.9902855327122 2.3426559407351 2.2641654615539 2.0291254205437 2.8652733854744 2.4018773634026 1.2434225640193 2.0728064956975 2.2675109187228 1.7469249615645 1.7251028070325 2.4141358397929 0.18827059262839 2.1913747929902 2.1982556529907 2.7275654545284 1.4068749995042 2.9533511436461 2.2674400720985 1.7480373733464 2.173938558943 2.0274515581329 2.2603048942643 2.1697424077401 2.7480303373392 2.2808868322254 2.7392964579643 2.3235040161591 2.3004255284504 2.1917748444916 2.7608200549334 2.4815162967613 2.9286354108777 1.9812060333568 2.4402635573551 2.2976371937436 2.0321894201513 2.2615934498524 2.7774619637739 2.4735987663481 2.9300782036299 2.8149262828196 2.7633134662179 2.4476128919884 2.2173185023947 2.7700161626993 2.204260472858 2.5312066249284 2.2238364521268 1.8364606165302 2.0094629405133 1.5963016772781 2.2199985030202 2.8662174166419 2.4044188689169 2.222223907595 2.0857242321687 2.126312172622 2.8496222071063 2.2550619913904 2.8983249919481 0.59875510346188 2.1271893881609 2.7121908525646 2.9347516826514 1.5360722219978 0.91092129262304 1.7346830132828 2.8642778263928 2.755730584055 0.31245151325199 2.0096259008336 0.64104248064074 2.2117074441856 0.93770697643331 1.7242799189265 2.213119904564 2.3871152983881 2.169507037034 2.1407959350351 2.8978202335366 0.50259004149872 2.2202302578296 2.6878593340827 0.49215701680729 0.64050891232348 2.387750712653 2.3026581311752 2.1033418749714 2.6877090303123 2.0190130787572 2.8742223312433 2.2566904304248 1.6923400069768 1.5256806587968 2.1051872100383 0.4822334488587 2.9056329129167 2.2661698714227 2.1389758098215 2.428205416042 2.2962992518024 2.8155662544165 2.9407811826563 2.8995718815569 2.0414115609496 2.7392833522165 2.890551876374 2.0879344868151 2.096634713911 2.0451466576061 2.1011157296312 2.4251529043323 2.8476458130432 2.1701058066854 2.3607437681036 2.9247971672707 2.3091949191264 2.1436605662008 1.0067815757361 1.9000645254976 2.4133603179602 1.8437819349529 2.3511259148488 2.3641392648913 2.8414106753202 2.2097637588599 2.8683110863147 2.0918666993725 2.8766268469532 2.8420254328577 2.3240156936056 0.2947564441669 1.9019075295656 0.86560416869033 2.1610773940695 0.63972086109681 1.7961999388486 2.2995698950026 2.9015034818256 2.0872784181344 1.9799944543308 2.9119070085221 2.4093971566613 1.3736481742065 2.33109849714 2.2518613810617 2.9092748009543 2.0259749381952 2.3777824226718 2.307439614814 1.5756500247869 2.8879154470429 2.3256106416594 2.3734136798854 0.44290440767786 2.262703888668 1.9341911422742 2.4309699937866 2.2380411349804 1.6268990076012 1.5034338348591 2.692114853291 1.5075873857758 2.6960384191506 2.7145723144495 2.8893540322146 2.331047470456 1.7664437820403 1.9631665340425 2.9339721746234 2.3972573310335 2.4334343671364 2.1102733728852 2.4457109660266 2.2748042905094 2.3566971469616 2.1842667065138 2.3782846785979 2.1959564756784 2.446015417304 2.2734001074015 2.4222249594415 2.1033521319549 1.8164182401203 2.1045811823011 2.2510064399247 2.2831699577173 2.8213847490263 2.8522703775004 2.867955760284 2.3234269703619 2.1260264387525 1.9320665873685 2.1597908806375 1.9914560314977 1.9712374866346 2.0944918814979 2.2158899139303 2.3901430340523 2.3929354331102 2.4313923308874 2.4233045770011 2.2492051755617 2.3174072041655 2.1316349298094 2.3433553328604 2.0191462019549 2.2897034397416 1.9374199891267 2.0111249264236 2.0545000513189 2.3585286544862 2.404100645992 2.2454708390313 1.8880815012176 0.69210768518414 1.909331140195 2.1524681534166 1.757762113924 1.9783306585312 2.3346977618726 1.7297002981749 2.11533236623 1.8431668662309 2.4624011165003 2.0140979283164 2.1091435202518 2.4642839958134 2.4750325603619 1.46459403629 2.0425685945929 2.3897656912752 1.9219576505162 2.0780371022596 2.4145799156088 1.8406803671565 2.1052792721999 2.4767869423025 1.1965859006375 1.9385660464231 2.4588850770945 1.8745687542708 1.8166600518259 2.16734213643 0.70578818285247 1.878702010873 2.1940469157088 0.90905346354138 1.9602248041483 2.2388087674122 2.4544475920187 2.1611773047075 1.9971106672457 2.3566123662368 2.0451396379787 2.2823665199917 2.3787815419942 2.3287077171676 0.82519358239019 2.1422294353608 2.3775565678361 2.381411859546 2.4066088358832 1.9549633190684 2.1847879457886 2.0094895483336 2.2460111528178 1.9064660899996 1.6050750450901 2.1963595263908 2.2284097001522 1.9106739357608 2.1538342815726 2.2430722254416 2.0905816670066 2.1828986910959 2.0662229852059 2.0161641705246 2.0330200521801 2.181858644862 2.2296302107811 2.3426662796936 1.9111004362393 1.5464671379139 2.2335970363031 2.3484455299098 2.1484383234153 2.2673468541306 1.354364113457 1.5461644578134 2.1551239124302 2.2739393967751 2.2270724258059 2.3401551680119 1.8557681753417 1.0320649865179 1.8849460402875 2.3303525903765 2.0441771472786 1.9483179759051 2.0815247186132 2.4277301495081 1.3992448518144 1.997012036861 2.2129303459724 2.207923470238 2.3204129571961 2.0947042882311 2.2234843330046 2.0943567702458 2.4397123460221 1.9719838029644 2.0746456880361 2.0984761638359 2.0178658087875 2.207205474477 2.3178400971151 1.8672417330103 2.2199606503254 2.1802591188459 1.4077636029511 2.2195622347245 1.3894528361356 2.2195552727414 2.3283179444705 2.1190098931025 2.2389821165461 2.0639611812511 2.1225189767447 1.9138425192866 2.286169427339 2.1622192100092 2.2294792346817 2.0798662540109 1.9715758248358 2.0673982429953 1.9993810422239 1.5136260251327 2.4174256839941 1.8662076504537 2.4261444139892 0.98248592535525 2.1606831106715 2.2645326964322 1.9031354788846 2.20379848695 2.2552768828994 1.9984842569267 1.5355481458819 2.1051613579547 1.8737397164227 2.1027261550416 1.9636686763003 2.0501316702229 2.1834477340671 1.2186571286447 2.2492401655732 1.8507968457065 1.8488165566613 1.1928251007877 1.9917872916948 2.3042343185126 2.2193655850785 2.0542081364726 1.7902781712743 2.1441380584333 1.9569865470552 2.2875092252323 1.9470307720414 2.2864228470088 1.9589089258258 2.2993909796871 1.8904104220943 2.2045433418711 1.7861515268448 2.2236503830232 1.9520784961272 2.2995147902202 1.945694491371 2.2789806963256 1.6134158494887 1.9623421511417 1.6855607598879 2.0077422714857 1.9414378378641 2.2734173175676 1.8525409164944 2.1578473910501 1.8663281363435 2.1883692587657 2.2137542809523 2.243855564563 1.9405861282622 2.0043301885862 1.9268014875112 2.2988035127398 2.2424972437957 1.7659965006278 2.2309589549502 1.6796226227977 2.1328577488835 1.8080051207451 1.5033642915886 2.1383909431341 1.7516850231231 2.0986560097476 1.8194407190522 2.1183803298239 2.0569304876315 1.9104291058638 1.8838082654646 2.1385228148303 2.0201239288891 2.0446295237629 1.4675085980733 1.8636849836886 1.8178186791693 1.8332290010434 1.7807190366953 1.9337476368633 2.3322992169224 2.1621071564243 1.8168490178397 1.8314944406457 2.2560209922213 2.057440607265 1.8778985588732 1.9256631071635 2.3205760767289 2.1882147369369 2.0761380289337 1.0330141717488 1.1562156654709 1.1666630542195 1.0687345138482 2.217000637303 2.1009375504777 1.9274051099334 2.2666130053844 2.1695072857092 2.0022116766114 2.2370217575978 2.0815796279493 2.1796026249644 2.0192206791149 1.947797323747 1.5196016074142 2.0914406597701 1.9711809147174 2.0470778602709 2.0311221594138 2.0088740827267 1.8362563956615 1.9806687318067 1.8829358468359 1.937748547551 2.2422362590443 2.1298570876161 2.1823284462977 2.2496878517251 2.1147980954181 2.1848568614309 2.1567988104771 2.059210810976 2.0953245038435 2.1919613714206 1.9107411680289 2.1187768748288 2.2622227319106 2.0934181513016 2.1877293359378 1.943629693583 1.8492593723891 1.8488887068946 1.9545958454189 1.8960965916622 1.9018543153132 2.2428513815968 2.1468653047959 1.9861623562358 2.2280545343275 2.1052456240148 2.1638125189856 2.1312202322836 2.0292259178623 2.0519617466422 2.199723735348 2.1636619355834 1.5788814831722 2.2066513667727 2.0244812531597 2.1379810889678 2.262161942828 2.0969562583781 2.1834346833413 1.9643383134357 1.8763962086592 1.4091450170872 2.244775742338 2.1138835799142 2.178607582605 2.1460228441936 2.0412416289178 2.080585407455 2.1045509938297 2.0813865051445 2.032771458894 2.0322761908037 2.0025511847081 1.8362161593493 2.2032393235317 2.046996940568 2.1422734664935 2.2190373317068 2.0623271230439 2.146867986909 2.2157494178487 1.9017617708273 2.1385201919991 1.8664562825055 2.0346303818442 1.7305377911884 1.6153815776346 1.6551607786626 1.3290349641 1.9075888620094 1.9770551937694 1.9156754956994 1.7582100873328 2.0132304748268 1.6828506693705 2.056458858768 1.6825905578095 1.4210898243695 1.550599999055 1.5644570503849 1.7976221692257 1.4269097376495 1.5790752538158 1.714280597764 1.6383455866619 1.7604255207798 1.5115951314432 1.9736891359545 1.4204916439484 1.8150379283661 1.6503634758291 1.885767722299 1.8725361073282 1.9314287040905 1.7939072865905 0.94590565782938 1.7039117350483 2.0512429455436 1.701836232178 1.7809299977556 1.6450013809395 1.7432880303455 1.664500124757 1.9539510086616 1.7212216538586 1.7915330668746 1.3558042321006 1.9800499078579 1.3787785265074 1.6009624790592 1.5530447804889 1.8985219319848 1.9250206107954 1.8859742069584 1.7864789612312 1.8485544478107 1.8257725190951 1.6033214701087 1.873590083304 1.7487103767813 1.9543267128894 1.8057943446654 1.8224538749499 1.5986938103432 1.5612761506418 1.755919738498 0.9561186007333 1.6201314063366 1.6448950216573 1.7949677512997 1.1418519304367 1.7770711624615 1.1133458615479 1.9781694643499 1.6933694324404 1.3966921658112 1.7143436484847 1.1841305962986 1.3436911660263 0.71568407504927 1.0447059521292 1.3530299452854 1.7834195097631 0.48645786129976 1.660840007018 1.2104820404232 0.97095539957417 0.38086458157804 1.045991374909 1.2946225061164 0.75624377482514 0.54473905487148 1.4340177762601 1.4132380798404 1.4096122811777 1.9801644939751 1.7650715772281 1.6787934349271 1.4518251304454 1.4605531031061 1.7719605143398 1.9390557651967 1.3239957609585 1.50060797134 1.5392369767368 1.7567433582604 1.1569937953423 1.6280021496477 1.794757786686 0.88645189865883 1.0929384486734 1.2950674683857 1.0341218044787 1.4913860214616 1.7794200596837 0.85908852161976 1.4584995415344 1.6634038576676 1.579005425595 1.4497072659876 1.8122750476131 1.179748567118 1.0263706733542 1.9710673207042 1.4181862595238 1.4124918205681 1.4040694163129 1.4235860801819 1.5819145654323 1.6363733379213 1.6557982361165 1.4064047086477 1.3473839968316 1.5957010715666 1.447199108728 1.5821597180326 1.5199484943275 1.5635685830301 1.8301307405544 1.4503295340175 1.407808594775 1.2908955294776 1.1995439503953 1.6281830922406 1.4517115618892 1.5590259833148 1.7311032509204 1.8803754311515 1.4304030658805 0.99646662433957 1.3298180213329 1.2976396329964 1.0891818597835 1.4307166319904 1.0000009343106 1.6861325520566 1.0432909404301 1.6133592636222 1.4792027742981 1.9331354456205 1.7077824155415 1.1110723777309 1.8178192224472 1.6882354681836 1.5325869742386 0.38240624858843 0.55490204907322 1.3892796809826 0.95654899334798 1.4799421813569 1.0476281537393 1.4152634820715 1.5536218391697 1.8972534381648 1.0134147668415 1.4441807872832 1.2140161669093 1.2129465949115 1.4902048611099 1.4285880234334 1.4114949105937 1.363957473092 1.5174627945124 1.4010905907732 1.4746625507428 1.1788200741438 1.2681965071532 1.2633944217423 1.4770629123685 1.4603989642244 1.3068024453628 1.6443183156129 1.4883107678419 1.4018645339718 1.5861504795072 1.4137118007025 1.5562486267682 1.2648516713448 1.6248894362165 1.44814704023 1.6362733048192 1.4498073839529 1.5117527932827 1.6076715937702 1.3363866321159 1.9951791724088 1.497168696927 1.043290354666 1.4377594797521 1.4158623335356 1.698409904554 1.2557144069033 1.0163150564107 1.1854607221225 0.90836503804926 1.8195706619784 1.1880887112464 1.0836053056271 1.4705853199638 1.4235293128383 1.4596226554146 1.8542167662873 1.5458915808399 1.6756386572613 1.407904087965 2.0008544555651 1.8083168306706 1.4219276701301 1.4271162781455 1.4336558430262 1.1850268910485 1.4299606729377 1.4717027261153 1.5472323001812 1.4337164306342 1.4693926300995 1.4666279720607 1.6660547170843 1.8670996205069 1.435942292084 1.4236185659298 1.4531463927812 1.4522737960651 1.736296064007 1.695831367626 1.2829251153017 1.6104566424443 1.5155059229729 1.2895234683405 1.2799441282095 1.2266952633248 1.2061066174579 1.2665916057578 1.4765369686296 1.4439838638876 1.4767262550087 1.4665597003668 1.1263098873632 0.95703499198981 1.0514010044873 1.0374979792356 1.3842979952254 1.0654395833235 1.3224232522654 1.3537805233914 1.2628577345143 1.4404819499448 1.2999911448324 1.2078461826901 1.1925359758444 1.233715705557 1.2445118842086 0.8079015230862 1.1923176819896 1.0947331459394 1.2874405290897 1.3601451718804 1.1736244302738 0.74990455706329 1.1466193078947 1.2237894372078 1.1768848836067 1.1417945877756 0.98115471704236 0.98413424693837 1.1095117138597 0.84017916180989 0.9547199516174 1.4366596188459 1.2912732341409 1.1356476256523 1.4310195035945 0.84294895060653 1.0646915917267 1.1278131187985 0.88778297917909 0.95104797976127 0.95642493326099 0.86689597436242 0.77542116587085 1.136037770275 1.0057101076784 1.0803112150969 1.5129245729353 1.1437876540232 1.661611527103 0.68895528418653 1.7244505307232 1.3629138799286 1.1369133796513 1.0541868412128 1.6500195646907 1.521832054702 1.4033899256474 1.5566963468799 0.5199599612129 0.74519649816344 1.4225869486517 1.6488133564586 1.6562990347355 1.4130655512287 1.0853784361325 1.3760031339683 1.8222546883329 1.5783730843653 1.6932894885869 1.4037680253007 1.4275961779649 1.4126770866883 1.4435570917929 1.3457073541791 1.0137727943332 0.78976188711762 1.4850573496136 1.8840204940729 1.4701754032937 1.4606111280304 1.4501246880552 1.1770633262913 0.53936199372881 1.2197683908852 1.4046381945593 1.4002546766707 1.4681360270069 0.95210502648848 1.4448012595736 1.4254752876809 1.4435927716375 1.4110709938968 1.4001098352357 1.4218774386821 1.4059828231113 1.4190978984221 1.4287375538501 1.4273740101987 1.4018798560261 0.72678717732639 1.4236070880977 1.4108742703881 1.4198058627249 1.4143350382944 1.4313822024483 0.99829602611642 1.4262822786707 1.4163881127616 1.4262760417248 1.4140586363192 1.439736361965 1.4128294874635 1.4361579990277 1.0738464639222 1.4038031338322 1.3976210218257 1.4046256687859 1.4604735437197 0.86553225565126 1.0105306757513 1.4293424203724 1.4783390934141 1.0397781157946 1.0917343807221 1.0265352989536 0.96471344791451 1.4154145881887 1.4063383279119 1.4267760144925 1.4436799861052 1.410978524013 1.5314466989934 1.0932937875608 1.4388107592696 1.6441473033275 1.5734641020496 1.5109587846289 1.0510409700591 1.4546746214227 1.4315808166052 1.4503282539658 1.4152572280898 0.97269029367933 0.97180813436322 0.98675285907258 1.0627391516147 0.92004790738852 1.103846364494 0.89731515818491 0.94956113248494 0.91515985100568 0.88094655229611 0.96869944088931 1.0096708661688 0.87883726359474 0.8683402701894 0.94759955385015 1.046604306568 0.9157370300371 0.92337908602315 0.83608609449019 0.7493240274518 0.89143564055682 0.91637249489037 0.79471872049911 0.79756471758211 0.8923942471911 1.002730018015 0.92323358550626 0.89595677592554 0.99267608997143 0.86579131163419 0.87654193436002 1.1478619155519 0.87001953046679 0.82889483361797 0.83718868294043 1.0247960528342 0.7443774131776 0.85878491101782 0.79420288225226 0.8038909903787 1.1327080624068 1.4625479042881 0.90514229812936 0.79525318532535 0.7157258334056 0.74953150650365 0.84524586665983 0.77873483766621 0.76286666671639 0.77864105854205 0.70913853942583 1.100956956204 0.70859144781638 0.6343287907255 0.81534251815567 0.74739498167089 0.92590752207945 1.1166599166019 0.92101084176296 0.89791946167459 0.82541089605792 0.75050073129014 0.74584760792579 0.77341635977704 0.70674991078105 0.74374177373008 0.7607089908086 0.69336031958515 0.8291651592919 0.76911911303724 0.67715713748869 0.59657066398316 0.96418053411568 0.79728021587285 0.6806494172504 0.77127734337673 1.0668604953514 1.0652427233244 0.9804316675767 0.85644544751603 0.68048684840729 0.74142601193768 0.96211806538705 0.86400614576664 0.95639393994103 0.9989987264942 0.87935651664294 0.79253114780837 0.97993061551289 0.91579524050687 0.94877927901913 0.84724967864759 1.3910062410357 1.4226562781127 0.60013345450171 1.0625370279338 0.55719599288625 1.0907913288053 1.0973686484656 0.58230191077247 1.0673332088581 0.8555946343129 1.0649133471336 0.95391290100445 1.0159860210669 0.83367180316918 1.1232877684869 1.00440857014 1.003958591614 0.93608849153877 1.0009868795877 0.6319986373714 1.0992359293365 1.0974383874766 0.57011963184195 0.67683607116104 0.95267044508807 0.95518070247504 1.2468442588873 1.1273652841192 1.1218205480203 1.0426954033136 0.69501693761459 0.6152101172251 1.0722759421462 0.60271054889084 0.59225737238192 0.714577761304 1.0993935130705 1.0909799300811 1.1638055383712 1.1701257643915 1.173317733613 0.82712058417467 1.198713993721 1.0678343471075 1.1364804078678 0.56189186720096 0.58119618702807 0.64757747207118 0.64558690428091 0.5411824908234 1.0405324175749 0.68039700114782 0.68830792343008 0.52606312026421 0.49565972534117 0.53201492857048 0.51684514389413 0.63507940185514 0.52016745862226 0.5159176343497 0.44196137113571 0.54783866566441 0.48868238514606 0.54564474139215 0.41756393724831 0.58403755604052 0.49723947534827 0.52461839886892 0.550154803715 0.46862848933791 0.3884309331923 0.53231717555999 0.46358685085574 0.5870604938417 0.46540183018221 0.39475168433627 0.51643286169765 0.61996140932636 0.44383736959703 0.48888946571472 0.57811466873117 0.71433991704179 0.41387822057829 0.32551389584759 0.50508665692066 0.61131671089426 0.58829981622214 1.2625665902447 0.77046924902115 0.78525471998604 0.47650254081179 0.36782453259511 0.454717479734 0.44476765591553 1.4455601347157 0.50127920974896 0.4412025229804 0.27824580446858 0.43602885465643 0.46371062327366 0.58598138723512 0.38729131341693 0.39631856648824 0.51172515701157 0.37622427777188 0.65398159094657 0.54045711221907 0.62353917038243 0.50922331711095 0.6180882343064 0.41245014907128 0.34250245931374 0.40047319180593 0.54780186896505 0.46078817962255 0.42356421187612 -0.16640788410735 0.45349366199737 0.33132398421397 0.33356489376402 -0.11155773845265 0.2162384935996 1.0269265421159 0.82822204840453 0.61546437111807 0.85751056219695 0.54837237194368 0.69529236454469 0.62720742481129 0.80608409209221 1.1713673727903 1.2441945241204 1.6582256805177 1.4693430109155 1.4639894095219 1.0928402366378 1.4676402512972 1.4427161931347 1.4447845277118 1.1530879114939 1.0339210914065 1.0704922143562 1.0374527835537 1.1342975973885 1.4443010669022 1.4404611470973 1.4224021981886 1.4193939384329 1.1278120119525 0.90484633121359 1.028323196032 1.0772513604119 0.96823197453493 0.97485588421989 0.81048515962054 0.81299056355004 0.94255321942077 1.0515466122904 0.85841256668206 0.98626080670254 0.98058665166717 0.93639833721412 0.81946187794587 0.85301998898274 0.89064929087888 0.77211283790175 0.86729149298306 0.84568690489793 0.72587579872102 0.71887463461699 0.92127645663138 0.82250580647379 0.66824254624185 0.73841244903752 0.73955623825515 0.78838670046784 0.69586909787755 0.59612391847151 0.69593859715535 0.6884499977151 0.74489675913662 0.59405631006307 0.66824009757867 0.67986630643959 0.60804576351444