# vtk DataFile Version 3.0
d-2__ created by libgimli-v1.5.0-1-g5991b6ac
ASCII
DATASET UNSTRUCTURED_GRID
POINTS 3056 double
16.047984885364	9.2005108665658	0
16.227640130622	9.31797770521	0
16.052808675398	9.4151062914457	0
9.6856707273838	12.779965388042	0
9.5840448320983	13.008863982168	0
9.459889155087	12.888340064957	0
9.4017034496321	12.989518397958	0
9.4966291044861	13.057428275285	0
9.409213376874	13.105992568403	0
6.9615730037337	14.465792775704	0
6.8666473488796	14.397882898376	0
6.9945996683525	14.319328169198	0
10.283370652996	12.620349637225	0
9.9337077425469	12.814606809696	0
10.035333637832	12.585708215571	0
10.370786380608	12.571785344107	0
10.246630703596	12.451261426896	0
3.2	14.888006064741	0
3.3935321886838	14.815842352641	0
3.3	15	0
10.363276453366	12.455311173661	0
3.05	14.894536113346	0
2.95	14.834347813918	0
3.0997032337695	14.698789777549	0
22.54986393823	5.4610590293129	0
22.601478319067	5.6563101371606	0
22.484832569298	5.6522603903955	0
7.8357302798552	13.980149844525	0
7.7483145522431	14.028714137643	0
7.7115746028439	13.859625927314	0
8.7098875559768	13.494506913346	0
8.6224718283646	13.543071206464	0
8.5857318789655	13.373982996136	0
21.698091020789	6.0893390284563	0
21.734830970188	6.2584272387846	0
21.639905315334	6.1905173614571	0
4.9002967662305	14.698789777549	0
5.05	14.834347813918	0
4.95	14.894536113346	0
8.5275461735105	13.475161329137	0
8.5350561007525	13.591635499582	0
23.708017310135	5.0679061559452	0
23.57570494199	5.2584272387846	0
23.492391392804	5.1534065041647	0
7.9373561751407	13.751251250399	0
5	15	0
4.9	15	0
25.208739718026	4.888006064741	0
25.308739718026	5	0
25.108739718026	5	0
6.7500015991102	14.393833151611	0
6.8150329680421	14.202631790528	0
7.6608988246309	14.077278430761	0
7.653388897389	13.960804260315	0
12.90584248136	11.163420843689	0
12.869102531961	10.99433263336	0
12.993258208972	11.114856550571	0
14.304494123155	10.386392153803	0
14.40612001844	10.157493559677	0
14.654157033603	10.192134981332	0
11.237433729487	11.969668242483	0
11.18581934865	11.774417134635	0
11.36538604896	11.891113513304	0
11.120787979718	11.965618495718	0
11.885664010266	11.385614544848	0
12.082360983452	11.431411271421	0
12.024175277997	11.532589604422	0
13.080673936584	11.066292257453	0
12.98574828173	10.998382380126	0
13.867415485094	10.629213619392	0
13.77248983024	10.561303742065	0
13.830675535695	10.460125409064	0
10.909490913954	12.100065284392	0
10.844762499738	11.765076855645	0
12.934133900893	10.803131272278	0
3.6	14.810067208388	0
3.7	15	0
3.5	15	0
12.657805466197	11.128779422035	0
12.556179570912	11.35767801616	0
11.244943656729	12.086142412928	0
11.157527929117	12.134706706046	0
1.3	15	0
1.2	14.888006064741	0
1.4	14.810067208388	0
1.9	15	0
1.5	15	0
1.7	14.849260526121	0
12.119100932851	11.60049948175	0
2	15	0
2.05	14.894536113346	0
2.1	15	0
12.031685205239	11.649063774867	0
1.0997032337695	14.698789777549	0
1.05	14.894536113346	0
0.95	14.834347813918	0
11.332359384341	12.03757811981	0
5.7	14.849260526121	0
5.5	15	0
5.503868896942	14.598288840263	0
4.064468339761	12.492321883392	0
3.9817116885018	12.918420923089	0
3.7670358212135	12.67328000924	0
13.779999757482	10.67777791251	0
25.602637769837	4.524993056905	0
25.708739718026	4.8492605261212	0
25.458739718026	4.8343478139176	0
14.734062833973	10.027096517768	0
14.682448453136	9.8318454099206	0
14.862015153446	9.9485417885899	0
-0.24940646753892	14.834347813918	0
0.05	14.834347813918	0
0	15	0
15.804771660235	9.3804648697915	0
15.703145764949	9.6093634639172	0
15.578990087938	9.4888395467067	0
29.767533861964	4.3398980943704	0
29.508442951795	4.548348532907	0
29.495546029131	4.1485808085627	0
0.1	15	0
0.3	14.849260526121	0
27.458739718026	4.8945361133462	0
27.358739718026	4.8343478139176	0
27.508442951795	4.6987897775495	0
0.5	15	0
16.678928936356	8.8948219386129	0
16.4287009421	8.6628888321103	0
17.028591846805	8.7005647661415	0
1.1	15	0
1.95	14.834347813918	0
20.105956534257	6.4151422964054	0
20.247470662652	6.669867727517	0
19.925330046586	6.7203171073957	0
21.501394047603	6.0435423018831	0
24.087916739041	4.9470663132613	0
23.750549209437	4.5440302871062	0
2.3	15	0
2.2	14.888006064741	0
2.4	14.810067208388	0
26.308739718026	5	0
26.358739718026	4.8343478139176	0
26.408739718026	5	0
25.008739718026	4.8100672083876	0
24.908739718026	5	0
3	15	0
2.9	15	0
1	15	0
21.472583787351	6.4041201181382	0
21.297752332127	6.5012487043739	0
21.301387084399	6.2885606170178	0
19.199774869435	7.6667917392027	0
19.112359141823	7.7153560323205	0
19.104849214581	7.5988818618751	0
6.1791038580454	14.704649136022	0
6.0874157276122	14.951435706882	0
5.95	14.834347813918	0
6.8741572761215	14.514357068821	0
6.7867415485094	14.562921361939	0
16.402471585846	9.2208491189743	0
16.260666795241	9.171513098704	0
16.394961658604	9.1043749485289	0
6	15	0
28.922845333402	4.5823118347521	0
28.708739718026	4.8492605261212	0
28.602637769837	4.524993056905	0
4	15	0
3.95	14.894536113346	0
4.05	14.834347813918	0
28.108739718026	5	0
28.208739718026	4.888006064741	0
28.308739718026	5	0
7.136404458958	14.368664189468	0
7.1315806689246	14.154068764588	0
7.3112359141823	14.271535603232	0
23.945942620228	5.1435706882137	0
23.403806383266	4.93902940218	0
3.9	15	0
4.1	15	0
27.608739718026	4.888006064741	0
27.80227190671	4.8158423526409	0
27.708739718026	5	0
17.36404458958	8.6866418946778	0
17.356534662338	8.5701677242324	0
17.451460317192	8.6380776015599	0
5.3	14.849260526121	0
5.1	15	0
14.617417084204	10.023046771003	0
5.9	15	0
6.5387045333462	14.528279940285	0
14.998996154018	9.7832823839802	0
15.178651399276	9.9007492226244	0
15.003819944052	9.9978778088601	0
4.3	14.849260526121	0
27.508739718026	5	0
16.453147364059	9.0031966155281	0
16.256450390874	8.9573998889549	0
22.871235429146	5.6270914282524	0
22.72943063854	5.5777554079822	0
22.866411639112	5.4124960033725	0
21.122920876903	6.5983772906097	0
20.948089421678	6.6955058768454	0
20.981116086297	6.5490412703394	0
1.8827233936571	13.413209492963	0
1.635985724768	13.057931042977	0
2.0585343714792	13.116469985366	0
13.63397856251	10.414328682491	0
24.321832839145	4.8833962425865	0
24.408739718026	5	0
24.316180298466	5.0287141376427	0
24.708739718026	4.8492605261212	0
24.508739718026	5	0
24.458739718026	4.8343478139176	0
23.483145522431	5.2871413764274	0
9.2631921819019	12.842543338384	0
25.358739718026	4.8945361133462	0
25.408739718026	5	0
25.508739718026	5	0
12.206516660463	11.551935188632	0
3.1	15	0
12.308142555748	11.323036594506	0
24.679068235604	4.239790780138	0
25.006267059794	4.3425605622482	0
24.599747236054	4.5734506034563	0
22.521572518697	5.8213486007239	0
22.608988246309	5.772784307606	0
11.502367049532	11.725854108695	0
11.68202229479	11.843320947339	0
11.507190839566	11.940449533575	0
10.491228772839	12.376756444483	0
10.633033563444	12.426092464753	0
10.45820210822	12.523221050989	0
22.696403973921	5.7242200144881	0
23.395729794819	5.3357056695452	0
23.358989845419	5.1666174592169	0
2.8061019481889	14.524993056905	0
2.7	14.849260526121	0
26.108739718026	4.8492605261212	0
25.908739718026	5	0
0.9	15	0
26.458739718026	4.8945361133462	0
27.308739718026	5	0
27.408739718026	5	0
29.358739718026	4.8343478139176	0
29.408739718026	5	0
29.308739718026	5	0
26.508739718026	5	0
27.108739718026	4.8492605261212	0
27.214841666215	4.524993056905	0
28.408739718026	5	0
28.358739718026	4.8945361133462	0
28.458739718026	4.8343478139176	0
28.508739718026	5	0
21.923872593085	5.9809643515411	0
21.8222466978	6.2098629456668	0
26.708739718026	5	0
26.608739718026	4.888006064741	0
26.808739718026	4.8100672083876	0
28.908739718026	5	0
29.108739718026	4.8492605261212	0
14.056457107991	10.351750732149	0
13.954831212706	10.580649326274	0
29.658146185565	4.8343478139176	0
19.54461398985	7.2579391418513	0
19.724269235108	7.3754059804955	0
19.549437779884	7.4725345667312	0
21.647415242576	6.3069915319025	0
13.250681601775	10.754568246337	0
13.430336847033	10.872035084982	0
13.255505391809	10.969163671217	0
9.2674085862685	13.056656548133	0
16.489887313458	9.1722848258564	0
16.577303041071	9.1237205327386	0
17.626291772416	8.5409490153242	0
17.484486981811	8.491612995054	0
17.621467982383	8.3263535904443	0
21.284504402929	5.7190625713937	0
21.673644598829	5.7490312450385	0
17.276628861968	8.7352061877956	0
16.926965951519	8.9294633602671	0
17.239888912569	8.5661179774673	0
18.11404618869	8.0804750462887	0
17.902749122926	8.2149218349628	0
17.83802070871	7.8799334062158	0
18.238201865702	8.2009989634992	0
18.150786138089	8.249563256617	0
8.5612854570062	13.033675212718	0
9.0547266763919	13.085654315995	0
8.8115134512622	13.265608319221	0
14.741572761215	10.143570688214	0
9.2343819216497	13.203121154639	0
9.0595504664254	13.300249740875	0
9.4354427331278	12.548032281539	0
9.6630878033521	12.327490919146	0
15.615730037337	9.657927757035	0
15.520804382483	9.5900178797075	0
9.9706052236163	12.250719786823	0
14.828988488828	10.095006395096	0
15.528314309725	9.7064920501529	0
19.986516417945	7.2297131011419	0
19.949776468545	7.0606248908135	0
20.073932145557	7.181148808024	0
20.175558040842	6.9522502138984	0
25.309036484257	4.6987897775495	0
20.860673694066	6.7440701699633	0
20.853163766824	6.6275959995179	0
22.273535503534	5.7867071790697	0
22.208807089318	5.4517187503226	0
3.1317176073544	14.309812537406	0
20.736518017055	6.6235462527528	0
19.891590763091	7.1618032238144	0
19.899100690332	7.2782773942597	0
28.008739718026	4.8100672083876	0
27.908739718026	5	0
18.23069193846	8.0845247930538	0
28.309036484257	4.6987897775495	0
27.895939159663	4.4709363375124	0
28.265207298324	4.2898533340251	0
18.988203464812	7.59483211511	0
23.147692779655	5.301064247891	0
23.04606688437	5.5299628420167	0
19.024943414211	7.7639203254384	0
20.773257966454	6.7926344630811	0
20.423595056005	6.9868916355526	0
20.525220951291	6.7579930414269	0
18.325617593314	8.1524346703813	0
22.171909608248	6.0156057731953	0
18.358644257932	8.0059700638753	0
18.500449048538	8.0553060841456	0
13.113700601203	10.919827650947	0
18.179077557622	7.889273685206	0
[...]
CELL_DATA 5825
SCALARS Coverage double 1
LOOKUP_TABLE default
2.3067677694668 2.3253019451757 2.8716881769067 2.3360403310113 2.3241394209717 2.8530106803835 2.1537237566966 2.3115128653662 1.8639961989276 1.9188536440782 2.7548593235445 2.8143879051861 2.2716556211604 1.8838687955253 2.8568710413468 2.3302964118342 2.241885637119 2.7752327057532 2.427616815439 2.4350176705752 2.2064607699562 1.9249210197667 2.7975165232738 2.8825062735852 2.3569412329048 2.2326204390466 2.0447137639964 2.0485678930752 2.9202549109517 2.4375683487814 2.1199387189417 2.3650292965923 2.0594085708132 2.1114104422946 2.3439430735276 2.8588550331548 2.0613539524332 2.1216110223082 2.4167431189132 2.7342664531422 2.8908866807717 1.637611032917 2.8975179263314 2.3590676043698 2.0349156985969 0.76719488411838 2.9274748868347 1.9410509240291 2.2822333317468 1.3623934687333 2.370977529422 0.78724070667729 2.0883566447081 1.7036509842233 1.6984260447298 1.720496689418 2.1503922863235 2.2206336029199 2.720834098822 1.7691923601222 1.9319945348758 1.9559849715506 2.1178691806262 2.6641204328245 2.0937100449205 2.757314057244 2.1529123616185 2.7463261339974 2.1864497854066 1.9823753639358 2.872653248165 2.0459202693759 2.7833681555454 2.4660136110914 2.4279441490831 1.6112423909643 2.185462227428 2.1776715661756 2.1463179731152 2.2009782643313 2.248292740787 2.1101662367805 2.7763178135053 2.7362302442563 1.9971110789667 2.9036328995832 2.2020392092486 2.0658517191296 2.4865946732779 2.2901884072558 2.2996197025077 2.227835192772 2.1650724475366 2.0452590707114 2.1842110458166 2.3908508208294 2.34747047698 0.74019976132655 2.0660501279229 2.8094789097482 2.260985415204 2.8660341949404 2.0316075913548 2.6939616292367 2.690432694866 2.8716348830227 2.0974085709211 2.7808491149253 2.3607200935705 1.4901698726588 2.7896036819347 2.2807906700798 2.8376974343087 2.4201415952473 2.825721458747 2.8277340171884 2.000515143549 2.3271226636639 1.9370891776075 2.0888825334737 2.1895227271134 2.7143626231387 2.1463315939094 2.6543105915131 2.1054813479714 2.7116044947886 2.1213694297262 2.2511604506694 2.7179520430782 2.2449336637594 1.8246989705784 2.1895206806249 2.6773544529752 2.2726666626074 2.0497747684308 1.829548707219 2.3855945598625 1.5569646030717 2.699495325131 2.0620065146212 2.806525092952 2.222355897289 2.7341515970845 2.8309602585652 2.2973774855838 2.4423652951347 2.8798948983867 2.3657989251402 2.2985269512215 1.7018874307935 2.3415696968588 2.87704665659 2.903569256381 2.068564140404 2.8594812978864 2.0836461481566 2.8917220933626 2.4486499004762 2.2719654616472 1.9266080730815 2.3912618202181 2.1229998952775 2.931203354768 2.3130824035739 2.8775939335827 2.9075122990829 2.7925805565526 2.2973470782651 2.4271055679093 2.8102764914888 2.8324621845448 2.3192666747327 1.778344379487 2.8856854655482 2.8447244978484 2.3123568568082 1.9862862373946 1.60675554765 2.3764038996646 2.8678008827523 2.0935564509116 1.9576940315677 2.3226798497656 2.4277794389066 1.3989659223337 2.1692372611101 2.4077592008212 2.2192292411076 2.8438455665473 2.3248520831456 2.2636230456749 2.8898796137814 2.9148560480945 2.3889554329332 2.2232513107153 2.4111517494608 2.8096599931512 2.2454350639387 2.024700856874 2.3007566316922 2.2871014307067 2.0325243379693 2.3044733765171 2.409357798562 2.2646440807806 2.4181270498791 2.449612933767 1.7869169781451 2.244045787529 2.2832208050505 2.2723984675382 2.2852632924033 2.1571441589893 1.7532368576606 2.1992761949047 2.3326061607475 2.3883485694897 2.0341944672784 2.4231753328674 2.4470630302507 2.4818207994402 2.4400917857116 2.469587670303 2.2603718954602 2.3695735169913 2.0106458133224 2.3870795773646 2.0258959095221 2.1709406758373 2.3309700467436 1.8901463062047 1.7908860050287 2.2081174690454 1.9821547058137 1.9935964672455 2.2245865029891 1.9106657759512 2.0476692329369 1.5337974022775 2.0881192120135 1.5097989589271 2.0495980897141 1.934552012667 2.3376845739467 2.2126859107768 1.7486808780707 1.9568151380885 2.2197828731382 1.9821971004761 2.4369606913525 1.8393906984083 2.0072513535449 2.2387564665836 2.1870283448083 2.3087665698931 1.9930289316252 2.0517215125354 2.06846277227 2.3207331829389 2.2500076815475 2.2532377562989 1.9790008013421 2.1968396699178 2.2236972138461 2.381937059341 2.3427413738976 1.8902245229792 2.4130070539223 2.167070749411 1.8922907424411 1.9159186280019 2.3100662800539 1.4915352956812 2.0739094202332 2.1920565020687 1.479892788627 2.259240256708 1.4695617276899 1.8545833398729 2.17824361371 1.5971819035238 2.0130083957951 2.4412967175638 1.8757555290869 1.963742362258 2.1928072135277 2.0929511335401 2.31805361447 1.9694149733571 2.1811313020575 2.3546498198886 2.2456517139692 2.2942579172701 2.2856901102355 2.4519977181554 2.4183990090987 2.1367796074421 2.2065712628689 2.3194208467253 2.2932500864877 2.4604393738238 2.4288422083936 2.314107056488 2.301261336034 2.4762944956112 2.4437297670875 1.752966083416 2.363960302316 2.0738441951198 2.4023048367026 1.8070954609983 1.7428113741712 2.056360431623 2.2062989994715 2.2856410630338 1.8699100698092 2.2227555994286 2.1085597654633 2.132896843616 1.9264085958149 2.3133887580964 1.9258092546884 2.2553011930761 2.0090686595546 2.360541637949 1.9815280255733 1.9810626992312 1.7787842681303 2.216769919401 1.8608534598581 2.2432394642957 2.2640362400301 2.3488127164543 2.141237964564 2.1928420803365 2.1325326580266 1.8785262345911 2.0866672262625 2.4431077014551 2.1039896169112 2.4532926175452 2.1298287552107 2.4407692376074 1.9661975250677 1.8052223029702 1.7786217551425 2.0453601274393 1.815123196492 2.14054697396 1.9803047446605 1.9156001964293 2.1442257783783 2.1224026504422 1.9799024378982 2.2231617069958 2.2315693373222 2.2350720750144 2.0562314231535 2.425040730777 1.8860589712941 2.2049271339022 2.2541903261651 1.9316044307404 1.8458315934382 2.1210589930071 1.9775473760912 2.0010659101844 1.5722428261077 1.9990004997414 2.3133668230753 2.1375783200328 2.2353691624086 2.1135250203446 2.0141418915355 1.842528552201 2.3358516942804 2.3370904665772 0.6442090432396 2.2306896426924 1.0045869413784 2.363767191578 2.2859643602049 2.0824167708541 1.8853091449966 2.2986812364833 1.9926735171643 2.1051225985238 1.807763924061 2.1539811153151 2.0110413639576 2.0292279591233 2.2500564980795 2.2791471495948 1.9260720848404 2.2978687483248 1.9000842783796 2.0354364063111 2.1488144638863 2.1619835077237 1.9689000707339 2.3201052317846 2.2456111638374 2.2636438206567 2.2021636977919 2.2924954458357 1.9439482967212 2.3565983206628 2.2314345456162 2.0545687590302 1.2277987703359 2.104973390248 1.7544156646966 1.7093553051969 2.1319361716995 2.118519974126 1.8256974398273 2.0920775811831 2.0995535052935 2.0414600865606 1.7436758943004 2.1154474237901 2.0063602855398 1.7812181414474 1.4818342811138 1.7850153164964 1.8062547140567 1.7754030984699 1.9660475637602 2.358205595277 2.2471041079018 2.1293295834104 1.9708532239331 2.374373962202 2.2082428632047 2.1090927257124 1.8657487896335 1.7192851031513 2.2453016636158 2.1277563371619 2.0434919500753 1.9866370876331 1.796418975301 2.3787147437275 2.2287295036764 2.1356467332934 1.9096394304352 2.2795139980645 2.1541107397709 2.0832774263532 1.1680452325101 1.2109267609996 1.5070633899487 1.2879416689824 2.2356239428193 2.110365044048 1.9386200488614 2.2085347266834 2.0661239387751 2.1862391659304 1.9656256478296 2.0359155325467 1.9701195985886 2.2003410968042 2.1369522105558 1.9604638579741 2.2514596259672 1.9589550313398 2.2144389930027 2.3010523560581 2.208284552326 2.0270797194797 2.2552328018121 2.1076956685891 2.2234109016728 2.0437557860164 1.9964029732716 2.0379989802401 2.3074190026678 2.2347643810116 2.0543717599245 2.2469792325764 2.1142519761707 2.2211603927148 2.318806339918 2.2197472744349 2.0346490497139 2.270919250089 2.1105249659762 2.2298522544162 2.2542767725922 2.0215209514481 2.2124859984561 1.9908514738138 1.8662347067662 1.6216734832041 2.0715461813287 2.1283585557289 2.0389681094569 2.0719096293492 2.0541505882467 1.8790173285312 2.0678125357405 1.9732468531925 1.720928574698 2.111809946147 2.0869412088786 1.8612275093336 1.9345584490347 1.9597697791974 1.8484928554214 1.9003618327188 1.9106921715794 1.7253646401685 1.9841117584516 1.9652491907996 1.7455926332114 2.2429759914657 2.12494888511 2.2146795681694 2.1322349050261 2.0205729337797 2.1074288278613 2.2097842715141 2.1943738201002 1.9665147807096 2.2294694659116 2.2023487724981 1.9754870572858 2.2508785581997 2.1966995276445 1.9478280802107 2.1778482521385 2.2367602616669 2.1427461878831 2.1822026404088 2.1839131400787 2.0076113517653 1.8164094651113 1.9650197006671 2.010878256011 1.8656849681142 1.7181020895393 1.4883692070614 1.8518206833708 1.5954490042222 1.5001951741508 0.7021608644055 1.9842620850177 1.9227412407643 1.6789116387403 1.4017070427575 1.6144762244325 1.7019090304997 1.7959495629139 1.9493899955577 1.5840311032361 1.7146629153266 2.0923702355918 1.5022503547486 1.988480235803 1.3938251111306 1.0873743730934 1.7409286937246 1.6587603209458 0.55847583251395 1.7855981967844 1.722063655974 1.7992158212033 1.6336680059996 1.7583053264672 1.664304998885 1.604557163317 1.6554569721596 1.6742624608726 1.0972638224307 1.7513568283185 1.8873928294123 1.4035971066796 1.7937748985795 1.7999544345035 1.7936690228041 1.5569428280214 1.7999736979987 1.9268689387555 1.835419824184 1.5092468899209 1.8274415845473 2.0480842226765 1.7807413824873 1.8069581920857 2.037675435669 1.9622855099681 1.6891482927292 1.458569697195 1.7156356279559 1.4631580129906 1.3887077959654 1.5715670352984 1.7926159408972 1.438604978891 1.5450242805902 1.4215811499869 1.513390031305 1.3944247626067 1.3013588294265 1.0011552188591 1.2487952504491 1.3726212669918 1.1997681877753 1.5454045869372 1.514433080677 1.7856680010228 1.3888395526888 1.7422882490224 1.7205429420962 1.496645594315 1.7293186788389 0.5571958654008 1.0595806590948 1.3825218672243 1.1073436627231 1.1644024595073 1.5348684533885 1.4992042621521 1.2139842841675 0.54121659088984 0.91062798655916 0.42795682306575 0.55863208267296 1.7200389037856 1.7751366904392 1.6350818785704 1.5133424534743 1.6282357289317 1.6119466236916 1.267032896082 1.0565879925478 1.4419422894379 1.8672506450213 1.2539845624615 1.9060759423118 1.3053152414156 1.2327446212665 1.7831211339479 1.5232557982271 1.4005631248101 1.4877209146911 1.3907140880102 1.5136876784448 1.7112115276072 1.4079381613634 1.3651937092069 1.3701571808705 1.7705701351866 1.5112784974893 1.45861926001 0.91217124584946 1.7927349578396 1.5738300175746 1.5718960260601 1.430581893873 1.7789940397962 1.522574859945 1.3192793907764 1.4084625249206 1.3598776458114 1.5460870764066 1.2736550395898 1.2793733322411 1.5113648042694 1.0800088982907 0.87310855471346 1.0014854686321 1.7325110357917 1.456989394942 1.7354473213775 1.5177403674367 1.7657897783746 1.3765835608332 1.7201632378702 1.3411605982677 1.4748658580473 1.2793970821036 1.1712847743048 1.5472629452363 0.97017979521918 0.49703271173049 0.93232840782214 1.0191422871065 1.3444894968143 0.96200359572718 0.59216290397106 1.2365163711143 1.219490721819 0.13108932670781 1.4799577475987 1.2287949455664 1.3338148887586 1.2172469570322 1.4638575028768 1.3165904233068 1.5378995973667 1.4525958614053 1.3597739783222 1.1960721447867 1.5141251247308 1.3805667790956 1.578511377675 1.3896810265579 1.4177096756004 1.439906104242 1.5761139983676 1.4097986756538 0.84805799589306 1.4252125289827 1.3469946874485 1.3900766652892 1.0482877459962 1.3697678943232 0.86756772358046 1.0012219508149 1.093628442709 0.61689990125936 1.3543228854726 1.1490546856778 0.94036254039385 0.8608356882119 1.4554571430106 1.4080876893836 1.3338392695213 1.2997343442646 1.4728685163466 1.1764363722036 1.5247743595614 1.3285028294533 1.4175913214542 1.2600026438809 1.5959099673775 1.3204118443404 1.6002790540434 1.4211866930916 1.4009347772672 1.4497391806355 1.6027493667547 1.4015929871029 1.4041196592575 1.4314619406263 1.2602440695365 1.0677876629362 1.3551351270747 1.3404095767856 1.3706779741684 1.3198957363162 1.3093118130673 1.5959186311305 1.5386620283396 1.3328342813434 1.3289199722091 1.3938680340134 1.8885693185366 1.5134017928157 1.2769134018542 1.3481751214755 2.0587413778928 1.5858046728103 1.4289550878817 1.3426410180538 2.0653634748114 1.5718715717542 1.4079373245346 1.2888678584833 0.91338830511496 0.89515279927669 0.93756610338923 1.2933825644079 0.6294441485194 1.2652761085581 0.86704504572252 1.2991334199843 0.82919193572975 1.9626699432252 1.547846856846 1.2319494706636 1.2469859276319 1.8628274891729 1.5023354523647 2.0644193829331 1.8103660459065 2.0528588911079 1.8222364919573 0.70655687643199 1.177570812305 1.3286555209206 1.1573393644843 1.0470525013556 1.18895309701 1.2729460942878 1.4742380608894 1.2029416089516 1.2854975376278 0.84878616007652 1.0849151586699 1.9991021595866 1.7304333723666 1.4815217460078 1.2441001444002 1.1244754472185 1.2854162360586 0.99309351963312 0.25689257856345 0.70103142372065 0.571395808968 0.84463569710882 0.53457063876808 1.7437568442723 1.6619583657813 1.2858357402388 1.2506568244035 1.3341821483743 1.2245738576616 1.241667255456 1.2894907881756 1.1827158741566 1.2069036121004 1.1416193087585 1.2905286474263 1.2904756607021 1.1001570426303 1.213163944092 1.1935207460411 1.1928733910495 1.1088680979104 1.115060467943 1.2812704900613 0.82490111080958 1.4003030574084 1.0595144941791 0.95372172607523 0.90910969763327 1.1588735916009 1.1292145827706 1.2684860555018 1.4691727420944 1.4022491452641 1.2522608049715 1.2418501437342 1.2810737952203 1.4012181451048 1.2146391882751 0.86950158331986 1.0533347709072 1.0616932043028 1.2114556892643 1.1003324033851 1.2525283185125 1.1962544917855 0.9763804621173 1.0765669122222 0.95834626091283 1.00338893492 1.1769981679515 1.2945653133816 0.92784524415915 1.4087495881575 1.3767654815953 1.3930735357281 1.1266696563373 1.0538107529165 1.1220833083559 1.1743682578186 1.1224559214554 0.97706288875491 0.89546504276754 0.94076550786076 1.3768458952187 1.3952878698509 1.1128336457323 0.96294176638453 0.85698810362347 0.91563058134058 0.98248034845911 0.89259720617454 1.1333539703107 0.92559642456026 0.95612963197913 0.82901071507608 1.0629112035964 1.3524988628327 1.0697404206743 1.2735584386798 1.2518192608764 1.6780336608448 0.93298822057615 0.81878449908573 0.55753761313176 0.699170628294 0.83911531529477 0.84649646340529 0.73563962811854 0.76352131485492 0.86821112122742 0.9286281507642 0.78654007711872 0.8363618732501 0.87571764892226 0.95237329847289 0.86317711153262 0.99672510307942 0.982708744744 1.0684720295069 0.73820551467022 0.73425280757396 0.93923393766798 0.95439779543627 0.829386871007 0.91925899304773 0.8314285280852 0.82507555040475 1.0891734221194 0.79856528518632 1.1060802336488 1.1519307388395 0.87786615330257 1.0890611850558 0.75116018764409 0.78836405914571 0.84212371346522 0.84249244264199 1.0414970105361 1.3802340989007 1.4064219529811 0.81151657543749 0.77991301617805 0.80559094297516 0.9290562301129 0.8605972303241 0.92138892971227 0.79611403666368 0.81448927473752 0.8052911164114 0.85016567340031 0.84275387640426 0.75034597721099 1.3989915460114 0.76912152623115 0.78796788229448 0.77558129516369 0.75544535774453 0.73230753683826 0.70402692627062 0.77325703603275 0.81343747800106 0.77229321558397 0.74510900103116 0.77969309754123 0.77574422314703 0.67401717783377 0.74341349484308 0.76517942150149 0.76383144698859 1.3725070246087 0.71021423342782 0.74607655262729 1.0299304355884 0.75163920340148 0.68039095620234 0.73689425299663 0.64160841470963 0.77024040276657 0.79259851371494 0.73864811897889 0.69611609346848 0.73693814780664 1.4347904934986 0.70556603131908 0.73158632458017 0.68814104904683 1.2630664975927 0.78612166413166 0.73226852125677 0.79574063986518 0.77051195889131 0.72342622931411 0.69186969274228 1.1356086069867 0.67163732026803 0.69676570030401 0.66589851118097 0.7059308960827 0.69647871787001 0.71554973455499 0.66754811321455 0.70789124650722 0.66226822667956 0.66525367793326 0.80006384546612 0.70636227890879 0.70482619086823 0.84096976658321 0.68012250662979 0.73558818940234 0.95295872533478 0.76727870436554 0.82198766878395 0.60813487741916 0.65787789384708 0.5872551768255 0.67283638989529 0.68564571807756 0.66524207089025 0.69542642567782 0.5805925165263 0.65147960584031 0.63760546857454 0.65206515254429 0.97874448172331 1.0808717610999 0.57624929028002 1.1526792933413 0.64513467383845 0.51836190426228 0.57042773949529 0.98038748563749 0.59016041681417 0.75729279762379 1.068573787177 1.489926739075 0.68632503767433 0.63454586923794 0.6411209024576 0.67882678354185 1.5031904997758 0.55611562132758 1.5215715716784 1.1199385366519 1.7005190581779 1.3930644855032 0.86696539560437 1.0024915145068 1.5028612025212 1.3938094162215 1.3923058857067 1.238511259247 0.84423111736386 1.183153417236 1.0845164600296 1.2298515150355 0.507832177048 1.217203365753 1.0872239355042 1.1382531061222 0.82683864903111 0.96425576140815 0.72743953001805 0.82355922665793 0.95476908785341 1.1274158228188 0.95255885592202 0.41050882365565 1.4869303850936 1.2403152966891 1.1609373962516 0.81219431900249 1.3028986468314 0.18457980607077 1.0258469676714 1.3968818075406 1.2642086445767 0.99484275777651 1.2065589777397 0.76294873742071 1.3587972873411 0.60102667577939 0.99174398801907 0.71775646968628 0.60501516255382 1.4740271986304 0.95098292793517 1.7158800595098 1.5477283831262 1.470059069181 1.1249634392672 1.3349363037499 1.3426465109814 1.1141921213143 1.235935192592 1.1938640369296 0.89412319670729 1.566427147849 0.80588694168547 1.4346186173836 1.2672938372278 1.388792858673 1.3970562866902 1.3526800387286 1.2925941952768 1.070516396801 1.16127423377 1.3734025968714 1.3106612557489 1.2561258423306 1.2846696407521 1.1464793465256 1.3127373720151 0.90922889353698 1.1686957283107 1.2484535804069 1.1214138738722 1.326532799763 1.1351660944956 1.0391495949054 1.1666010226882 0.90325612975075 1.1261753828312 1.0519185868537 1.0392977230669 1.3435433697991 1.2856670387534 1.3921744148776 1.4127798762477 1.1141905668275 1.258530500512 1.3798565298895 1.789397985281 0.90894511479136 1.3759879135491 0.99147535497305 0.99230126235994 1.2493321661287 1.3487254330205 1.5064448546072 1.4300076111021 1.1260798352744 1.1601554533193 0.98243891354471 1.1373649016381 0.96507090721647 1.3908977546728 1.3633499198568 1.4260422910979 0.94374724914108 1.3571333634296 0.95611498536685 0.90631789037522 1.0171014348203 0.86702018580525 0.88510422057336 0.9332277541837 1.0042751435302 1.1520265157849 0.68130852958336 0.85785673219215 0.97958294552163 0.89498344643709 1.1067063686334 1.0609015579746 1.0621427932636 1.0276612825141 1.2458405673453 0.63803531904515 0.85145375865974 1.0119541345557 0.99648476307311 1.108242246133 0.8483414009903 0.9176850520541 0.54973171908543 0.67600229428775 0.98129683799408 0.71687439526591 0.32219195939238 0.76291763717183 1.352184421207 0.62010587615553 1.2035208433175 0.53480255554574 0.56088088750301 0.70740538700313 0.62556317196226 1.0444735957735 0.54608458356202 0.61785493235147 0.55782683765968 0.55268745070547 0.64407200780158 0.74389514109771 0.73195997497172 0.77969114569808 0.64986534650372 1.0808946953729 1.3087284190978 1.1670374066504 1.1631698624212 0.83484320260569 0.62641489337006 1.0017918123797 0.96801400861439 0.91906146768232 0.82673624493018 0.27516444989532 1.2920146104722 1.2635681973592 1.1631831300544 0.37254493604848 0.8471965756118 0.56426046520686 0.51567733088574 0.77498531792677 0.78143483428772 1.0378897006335 0.98478765691775 0.5247823418756 1.4006686776174 1.3004545412059 1.3601187630135 1.0979320635274 0.97288993522237 1.4327608191231 1.2300925073814 1.272580913703 1.2264401229602 1.096115369296 1.2253417369913 1.0429110256123 1.3541712136113 1.0606209791522 0.88875475095056 1.1020384360933 0.96182076566311 1.2510372203286 0.9974445275087 1.3137848622814 0.83237245869079 0.89866664271633 0.9588561151624 0.72300036036631 0.89334884710787 0.9595406421654 0.86894304677425 1.22105