# vtk DataFile Version 3.0
d-2__ created by libgimli-v1.5.0-1-g5991b6ac
ASCII
DATASET UNSTRUCTURED_GRID
POINTS 3056 double
16.047984885364	9.2005108665658	0
16.227640130622	9.31797770521	0
16.052808675398	9.4151062914457	0
9.6856707273838	12.779965388042	0
9.5840448320983	13.008863982168	0
9.459889155087	12.888340064957	0
9.4017034496321	12.989518397958	0
9.4966291044861	13.057428275285	0
9.409213376874	13.105992568403	0
6.9615730037337	14.465792775704	0
6.8666473488796	14.397882898376	0
6.9945996683525	14.319328169198	0
10.283370652996	12.620349637225	0
9.9337077425469	12.814606809696	0
10.035333637832	12.585708215571	0
10.370786380608	12.571785344107	0
10.246630703596	12.451261426896	0
3.2	14.888006064741	0
3.3935321886838	14.815842352641	0
3.3	15	0
10.363276453366	12.455311173661	0
3.05	14.894536113346	0
2.95	14.834347813918	0
3.0997032337695	14.698789777549	0
22.54986393823	5.4610590293129	0
22.601478319067	5.6563101371606	0
22.484832569298	5.6522603903955	0
7.8357302798552	13.980149844525	0
7.7483145522431	14.028714137643	0
7.7115746028439	13.859625927314	0
8.7098875559768	13.494506913346	0
8.6224718283646	13.543071206464	0
8.5857318789655	13.373982996136	0
21.698091020789	6.0893390284563	0
21.734830970188	6.2584272387846	0
21.639905315334	6.1905173614571	0
4.9002967662305	14.698789777549	0
5.05	14.834347813918	0
4.95	14.894536113346	0
8.5275461735105	13.475161329137	0
8.5350561007525	13.591635499582	0
23.708017310135	5.0679061559452	0
23.57570494199	5.2584272387846	0
23.492391392804	5.1534065041647	0
7.9373561751407	13.751251250399	0
5	15	0
4.9	15	0
25.208739718026	4.888006064741	0
25.308739718026	5	0
25.108739718026	5	0
6.7500015991102	14.393833151611	0
6.8150329680421	14.202631790528	0
7.6608988246309	14.077278430761	0
7.653388897389	13.960804260315	0
12.90584248136	11.163420843689	0
12.869102531961	10.99433263336	0
12.993258208972	11.114856550571	0
14.304494123155	10.386392153803	0
14.40612001844	10.157493559677	0
14.654157033603	10.192134981332	0
11.237433729487	11.969668242483	0
11.18581934865	11.774417134635	0
11.36538604896	11.891113513304	0
11.120787979718	11.965618495718	0
11.885664010266	11.385614544848	0
12.082360983452	11.431411271421	0
12.024175277997	11.532589604422	0
13.080673936584	11.066292257453	0
12.98574828173	10.998382380126	0
13.867415485094	10.629213619392	0
13.77248983024	10.561303742065	0
13.830675535695	10.460125409064	0
10.909490913954	12.100065284392	0
10.844762499738	11.765076855645	0
12.934133900893	10.803131272278	0
3.6	14.810067208388	0
3.7	15	0
3.5	15	0
12.657805466197	11.128779422035	0
12.556179570912	11.35767801616	0
11.244943656729	12.086142412928	0
11.157527929117	12.134706706046	0
1.3	15	0
1.2	14.888006064741	0
1.4	14.810067208388	0
1.9	15	0
1.5	15	0
1.7	14.849260526121	0
12.119100932851	11.60049948175	0
2	15	0
2.05	14.894536113346	0
2.1	15	0
12.031685205239	11.649063774867	0
1.0997032337695	14.698789777549	0
1.05	14.894536113346	0
0.95	14.834347813918	0
11.332359384341	12.03757811981	0
5.7	14.849260526121	0
5.5	15	0
5.503868896942	14.598288840263	0
4.064468339761	12.492321883392	0
3.9817116885018	12.918420923089	0
3.7670358212135	12.67328000924	0
13.779999757482	10.67777791251	0
25.602637769837	4.524993056905	0
25.708739718026	4.8492605261212	0
25.458739718026	4.8343478139176	0
14.734062833973	10.027096517768	0
14.682448453136	9.8318454099206	0
14.862015153446	9.9485417885899	0
-0.24940646753892	14.834347813918	0
0.05	14.834347813918	0
0	15	0
15.804771660235	9.3804648697915	0
15.703145764949	9.6093634639172	0
15.578990087938	9.4888395467067	0
29.767533861964	4.3398980943704	0
29.508442951795	4.548348532907	0
29.495546029131	4.1485808085627	0
0.1	15	0
0.3	14.849260526121	0
27.458739718026	4.8945361133462	0
27.358739718026	4.8343478139176	0
27.508442951795	4.6987897775495	0
0.5	15	0
16.678928936356	8.8948219386129	0
16.4287009421	8.6628888321103	0
17.028591846805	8.7005647661415	0
1.1	15	0
1.95	14.834347813918	0
20.105956534257	6.4151422964054	0
20.247470662652	6.669867727517	0
19.925330046586	6.7203171073957	0
21.501394047603	6.0435423018831	0
24.087916739041	4.9470663132613	0
23.750549209437	4.5440302871062	0
2.3	15	0
2.2	14.888006064741	0
2.4	14.810067208388	0
26.308739718026	5	0
26.358739718026	4.8343478139176	0
26.408739718026	5	0
25.008739718026	4.8100672083876	0
24.908739718026	5	0
3	15	0
2.9	15	0
1	15	0
21.472583787351	6.4041201181382	0
21.297752332127	6.5012487043739	0
21.301387084399	6.2885606170178	0
19.199774869435	7.6667917392027	0
19.112359141823	7.7153560323205	0
19.104849214581	7.5988818618751	0
6.1791038580454	14.704649136022	0
6.0874157276122	14.951435706882	0
5.95	14.834347813918	0
6.8741572761215	14.514357068821	0
6.7867415485094	14.562921361939	0
16.402471585846	9.2208491189743	0
16.260666795241	9.171513098704	0
16.394961658604	9.1043749485289	0
6	15	0
28.922845333402	4.5823118347521	0
28.708739718026	4.8492605261212	0
28.602637769837	4.524993056905	0
4	15	0
3.95	14.894536113346	0
4.05	14.834347813918	0
28.108739718026	5	0
28.208739718026	4.888006064741	0
28.308739718026	5	0
7.136404458958	14.368664189468	0
7.1315806689246	14.154068764588	0
7.3112359141823	14.271535603232	0
23.945942620228	5.1435706882137	0
23.403806383266	4.93902940218	0
3.9	15	0
4.1	15	0
27.608739718026	4.888006064741	0
27.80227190671	4.8158423526409	0
27.708739718026	5	0
17.36404458958	8.6866418946778	0
17.356534662338	8.5701677242324	0
17.451460317192	8.6380776015599	0
5.3	14.849260526121	0
5.1	15	0
14.617417084204	10.023046771003	0
5.9	15	0
6.5387045333462	14.528279940285	0
14.998996154018	9.7832823839802	0
15.178651399276	9.9007492226244	0
15.003819944052	9.9978778088601	0
4.3	14.849260526121	0
27.508739718026	5	0
16.453147364059	9.0031966155281	0
16.256450390874	8.9573998889549	0
22.871235429146	5.6270914282524	0
22.72943063854	5.5777554079822	0
22.866411639112	5.4124960033725	0
21.122920876903	6.5983772906097	0
20.948089421678	6.6955058768454	0
20.981116086297	6.5490412703394	0
1.8827233936571	13.413209492963	0
1.635985724768	13.057931042977	0
2.0585343714792	13.116469985366	0
13.63397856251	10.414328682491	0
24.321832839145	4.8833962425865	0
24.408739718026	5	0
24.316180298466	5.0287141376427	0
24.708739718026	4.8492605261212	0
24.508739718026	5	0
24.458739718026	4.8343478139176	0
23.483145522431	5.2871413764274	0
9.2631921819019	12.842543338384	0
25.358739718026	4.8945361133462	0
25.408739718026	5	0
25.508739718026	5	0
12.206516660463	11.551935188632	0
3.1	15	0
12.308142555748	11.323036594506	0
24.679068235604	4.239790780138	0
25.006267059794	4.3425605622482	0
24.599747236054	4.5734506034563	0
22.521572518697	5.8213486007239	0
22.608988246309	5.772784307606	0
11.502367049532	11.725854108695	0
11.68202229479	11.843320947339	0
11.507190839566	11.940449533575	0
10.491228772839	12.376756444483	0
10.633033563444	12.426092464753	0
10.45820210822	12.523221050989	0
22.696403973921	5.7242200144881	0
23.395729794819	5.3357056695452	0
23.358989845419	5.1666174592169	0
2.8061019481889	14.524993056905	0
2.7	14.849260526121	0
26.108739718026	4.8492605261212	0
25.908739718026	5	0
0.9	15	0
26.458739718026	4.8945361133462	0
27.308739718026	5	0
27.408739718026	5	0
29.358739718026	4.8343478139176	0
29.408739718026	5	0
29.308739718026	5	0
26.508739718026	5	0
27.108739718026	4.8492605261212	0
27.214841666215	4.524993056905	0
28.408739718026	5	0
28.358739718026	4.8945361133462	0
28.458739718026	4.8343478139176	0
28.508739718026	5	0
21.923872593085	5.9809643515411	0
21.8222466978	6.2098629456668	0
26.708739718026	5	0
26.608739718026	4.888006064741	0
26.808739718026	4.8100672083876	0
28.908739718026	5	0
29.108739718026	4.8492605261212	0
14.056457107991	10.351750732149	0
13.954831212706	10.580649326274	0
29.658146185565	4.8343478139176	0
19.54461398985	7.2579391418513	0
19.724269235108	7.3754059804955	0
19.549437779884	7.4725345667312	0
21.647415242576	6.3069915319025	0
13.250681601775	10.754568246337	0
13.430336847033	10.872035084982	0
13.255505391809	10.969163671217	0
9.2674085862685	13.056656548133	0
16.489887313458	9.1722848258564	0
16.577303041071	9.1237205327386	0
17.626291772416	8.5409490153242	0
17.484486981811	8.491612995054	0
17.621467982383	8.3263535904443	0
21.284504402929	5.7190625713937	0
21.673644598829	5.7490312450385	0
17.276628861968	8.7352061877956	0
16.926965951519	8.9294633602671	0
17.239888912569	8.5661179774673	0
18.11404618869	8.0804750462887	0
17.902749122926	8.2149218349628	0
17.83802070871	7.8799334062158	0
18.238201865702	8.2009989634992	0
18.150786138089	8.249563256617	0
8.5612854570062	13.033675212718	0
9.0547266763919	13.085654315995	0
8.8115134512622	13.265608319221	0
14.741572761215	10.143570688214	0
9.2343819216497	13.203121154639	0
9.0595504664254	13.300249740875	0
9.4354427331278	12.548032281539	0
9.6630878033521	12.327490919146	0
15.615730037337	9.657927757035	0
15.520804382483	9.5900178797075	0
9.9706052236163	12.250719786823	0
14.828988488828	10.095006395096	0
15.528314309725	9.7064920501529	0
19.986516417945	7.2297131011419	0
19.949776468545	7.0606248908135	0
20.073932145557	7.181148808024	0
20.175558040842	6.9522502138984	0
25.309036484257	4.6987897775495	0
20.860673694066	6.7440701699633	0
20.853163766824	6.6275959995179	0
22.273535503534	5.7867071790697	0
22.208807089318	5.4517187503226	0
3.1317176073544	14.309812537406	0
20.736518017055	6.6235462527528	0
19.891590763091	7.1618032238144	0
19.899100690332	7.2782773942597	0
28.008739718026	4.8100672083876	0
27.908739718026	5	0
18.23069193846	8.0845247930538	0
28.309036484257	4.6987897775495	0
27.895939159663	4.4709363375124	0
28.265207298324	4.2898533340251	0
18.988203464812	7.59483211511	0
23.147692779655	5.301064247891	0
23.04606688437	5.5299628420167	0
19.024943414211	7.7639203254384	0
20.773257966454	6.7926344630811	0
20.423595056005	6.9868916355526	0
20.525220951291	6.7579930414269	0
18.325617593314	8.1524346703813	0
22.171909608248	6.0156057731953	0
18.358644257932	8.0059700638753	0
18.500449048538	8.0553060841456	0
13.113700601203	10.919827650947	0
18.179077557622	7.889273685206	0
[...]
CELL_DATA 5825
SCALARS Coverage double 1
LOOKUP_TABLE default
2.2525692247295 2.2891602406185 2.8669062307448 2.3249887031737 2.2961978480708 2.8590498027644 2.110769779232 2.3058457330369 1.8291265448948 1.8738617697756 2.7735301223207 2.8067391671514 2.2894559630605 1.8651990085704 2.8447481684167 2.3033999777999 2.2416107297594 2.8098178138741 2.3921283059311 2.4165135526795 2.2153569543227 1.8824286977459 2.812140263193 2.8952332802499 2.3279133374904 2.2011927115391 2.0036863904987 2.0155585643856 2.9230260921912 2.4313046801267 2.1047121946961 2.3703628410134 2.0234609710382 2.0783468256258 2.3213666644736 2.8662845415782 2.008661663664 2.1007985585239 2.4178516004241 2.7361206393884 2.9021478135074 1.6043451085492 2.8936672771381 2.3450896657554 1.9999802238806 0.80377010725411 2.9388403838182 1.9268653730721 2.2610454314844 1.499906266899 2.3431873070474 0.77073211374598 2.1999844306221 1.7667859139316 1.6835748677701 1.7899592634367 2.111460305791 2.1652335000558 2.7218272261101 1.7668759257894 1.8858887231872 1.9356530473767 2.0778190118952 2.6911106286792 2.0612819013903 2.7604272004157 2.1271298755528 2.6963200551616 2.1469120623529 2.0014435832037 2.8795192996868 2.067786618285 2.7792585938715 2.4427501960635 2.4910670477079 1.5954815890585 2.2309706232342 2.2157711182862 2.132299247965 2.1554057759549 2.2202471835524 2.0764251014712 2.7963104203998 2.754536242246 1.9805283598477 2.9125968214128 2.1849553453405 2.0271625506294 2.534157943614 2.2444873677376 2.2542112696311 2.1983219487818 2.1593826271499 2.0020509021654 2.145448580434 2.3556269219816 2.3256723277869 0.77929783907916 2.0298611236943 2.8450110213456 2.2371806404046 2.8731946524016 1.9866124803024 2.7331817805159 2.713537870345 2.8718159675242 2.132800109723 2.7800799979477 2.3259584595662 1.5060199361427 2.7989726253249 2.2364559117376 2.82898537874 2.3886752400741 2.832218527563 2.842172587103 1.9763670634743 2.3116346112441 1.9285469941247 2.0807558119663 2.1659106161769 2.6735515261788 2.1845008606487 2.6749822993672 2.2121664983873 2.7230902813659 2.1683555393577 2.2511329857053 2.7324674601284 2.2214631003237 1.8012249545417 2.1609498332521 2.679920707933 2.2464035455596 2.0250094476476 1.8154832273042 2.3552100916668 1.5581857255004 2.6960720653369 2.0530010359258 2.8124836827777 2.1757519070041 2.7720758532877 2.8384411537077 2.2516104128362 2.4182692384546 2.8854587883929 2.337895634189 2.2599437165286 1.694433850843 2.3053732894617 2.879548159636 2.9090016410719 2.0390595048861 2.8596061627353 2.0557657013137 2.8992475731696 2.4501102800954 2.2244311281805 1.9007652617714 2.3825940848586 2.1071887312796 2.9346153791316 2.2954617030714 2.8841811667459 2.9132812689437 2.7988250755352 2.2684985053494 2.4215942318555 2.8335397998413 2.8377293034598 2.2899802350196 1.765214410398 2.8830372937055 2.8491564195441 2.2764549438421 1.96744817382 1.6230297301968 2.3600182843576 2.8691781411929 2.0864823554645 1.9319418432534 2.330227557567 2.4267874572496 1.3849853149419 2.1556344252832 2.3980954321047 2.1989200501614 2.8450885772693 2.3042486931023 2.2335638376696 2.8963382387382 2.9154816278583 2.3836523228498 2.1962889211153 2.3849555327365 2.8137126306211 2.2240841662337 1.9799637963352 2.266385732306 2.239936465641 1.9934671973495 2.2566343100314 2.3692943266193 2.2165569168276 2.3914654800067 2.4237057978633 1.7675145041096 2.2211203244191 2.2564394035852 2.268278434822 2.281022110231 2.1048947986574 1.7359986816945 2.1903631190634 2.3181079915323 2.3695336224294 1.9928599583379 2.4038472710942 2.4252978979926 2.4634691410604 2.4168959096565 2.4491954150096 2.2202051353988 2.346733865905 1.9616662219319 2.3655132056507 1.9709187287789 2.1178512787834 2.3048565935912 1.8511960395405 1.7656100687774 2.1836525300698 1.9610379984043 1.9530973986698 2.2404732450323 1.883625995506 2.009003803025 1.5555352766014 2.080699410649 1.4919185222172 2.0089823469076 1.8988147157524 2.3029273508532 2.1730085286756 1.7544977250096 1.926346801331 2.184480277544 1.9376372770457 2.4028059002305 1.8538284227765 1.9632087251016 2.1955271404494 2.1575718451961 2.3176273690313 1.9599510171223 2.0273808258145 2.0613722550114 2.2880860624138 2.2010893193268 2.2059805513467 1.9294866228713 2.1606058504145 2.1722755309966 2.3639611111056 2.3211070318529 1.8436893597341 2.3836404044873 2.1511892321435 1.8615434447439 1.9136795865785 2.3085434046047 1.526616877716 2.0347136650418 2.1706496743815 1.4759412231508 2.2382701058477 1.4636459742926 1.8357975924519 2.1650181291365 1.585463818854 1.9886094500735 2.4127104796635 1.832024319801 1.913774120493 2.1483695105858 2.0663845863308 2.2858850388583 1.9524309595764 2.1491017864738 2.3323279146638 2.230899293683 2.2534868570707 2.2493404738686 2.443287331039 2.4078238751627 2.0734472504282 2.1690808162948 2.2818750368275 2.2470756559723 2.4418702291253 2.4077766256736 2.2746676945447 2.2592266200152 2.464047231444 2.4296411176894 1.7514817966026 2.3523400997555 2.0237965476911 2.382773390357 1.7869280476561 1.7568951414699 2.0457671412888 2.1609230499903 2.2527278832907 1.8618265397872 2.1767419528441 2.0689428870223 2.1100710561388 1.8975957074919 2.2893419832861 1.9004095011654 2.2390051787642 1.9708761298998 2.344264573287 1.9854828992192 1.9578443528884 1.7564896988685 2.214439578336 1.8281806233985 2.2388243997231 2.2136136104519 2.3162470096496 2.0950610939724 2.1623141647195 2.0919825977564 1.8354064034175 2.0455297133566 2.4245855749741 2.0614722546424 2.4394736338994 2.0976403626172 2.4149015627826 1.9356218569215 1.814905729985 1.790650261437 2.0239316022243 1.8260312367017 2.1026475380691 1.9509067886349 1.901478788117 2.123800484047 2.0958079058781 1.9516975199969 2.181194562775 2.2061370211109 2.1950450148305 2.0189010983932 2.4078083503355 1.8707885756254 2.1954730707065 2.2516934658794 1.8946003599127 1.8086892444565 2.0881097822129 1.9747041597433 1.9832596035726 1.5916900088016 1.9901532039067 2.2771319539635 2.1347674692499 2.1941386465147 2.1006707642571 2.0032778145124 1.8102276094229 2.3051290995188 2.3037585871591 0.65109449912035 2.2054107330329 0.99922830855738 2.332752316614 2.2545549566686 2.0659021522067 1.8623508303892 2.245213649579 1.9723637810451 2.0590822913313 1.7854000501857 2.1231940668268 2.0098127188486 1.9987897213446 2.2299481272808 2.231452370244 1.8913494135439 2.2540358656005 1.8794758492784 1.9917491736159 2.1210480330649 2.1187367294563 1.9380529096799 2.2733180424264 2.2242497889343 2.2094203490691 2.1778809891484 2.2416353366671 1.9116053620575 2.3333776484825 2.1893302170514 2.0293434021662 1.2870674666753 2.079915066762 1.7830100285682 1.7251034101607 2.13023947161 2.0743306966218 1.8070197231155 2.0990904128841 2.0507325736864 2.0012411248204 1.7170637317611 2.1075375918142 1.9791169494286 1.7464967590322 1.459371424707 1.7768305713067 1.7891441468846 1.7715048991971 1.9324263991583 2.3227074918208 2.1996431615334 2.1053466423259 1.9447830546488 2.3517739261384 2.1656923516985 2.0825764959887 1.8209642404864 1.7801767668546 2.2215612463695 2.0865251791304 2.0089106066372 1.9575171132394 1.7977747739185 2.3484903917308 2.1874372055648 2.1139226964618 1.8645528968436 2.251367253389 2.109886781121 2.0510414018831 1.2030894334656 1.2205614280774 1.5071482767775 1.2663099701468 2.1924147735339 2.0711060989023 1.9099016793443 2.1756753851292 2.0262754724763 2.1321660294035 1.9749979680604 2.0099711675423 1.9424414221727 2.1688819431258 2.0874338362179 1.9163539244566 2.2104779950991 1.9798819738781 2.1653827321592 2.2745023400621 2.1578970664332 1.9932716614255 2.2409668180789 2.074573937045 2.1886506307711 2.0698927328915 1.9686000533771 2.0135848184212 2.2689110794629 2.1906172517202 2.0260362624077 2.2218625046704 2.077949383636 2.1732817768309 2.2867977318804 2.1721405713192 2.0048925977823 2.2500477185709 2.073026700206 2.1859619789587 2.2264431855479 2.0082844016077 2.1704276961435 1.9625535258742 1.8435660785971 1.6218522025831 2.0737719511233 2.0826125588939 2.0085172320791 2.0282378384883 2.0025840953235 1.8391027664776 2.0255910228062 1.9349671202515 1.7112666974854 2.0730990516288 2.0414664342526 1.830868454036 1.9093556182852 1.9385354388252 1.8190292006626 1.874419129122 1.8906018802005 1.7088489894323 1.954196361564 1.9350453227418 1.729547316949 2.2181029563817 2.106279376438 2.1654002975762 2.1186062090192 1.9828805665192 2.0668652785803 2.1574440332063 2.1475552407784 1.9462888743133 2.1808621827912 2.1597574599877 1.9572963132282 2.207686331071 2.1483161041101 1.9323901313268 2.1566854743476 2.1897025299098 2.0945660192202 2.131271347541 2.1372456695479 1.9693333872286 1.8115762560092 1.9028369532773 1.9716549720072 1.8622632621696 1.707136864268 1.5487198437526 1.8378519462871 1.6274905004886 1.5027656675656 0.74397195336798 1.9460849559977 1.8836605499526 1.7011875097825 1.3396347358442 1.5785397151765 1.6943964256756 1.8059003573499 1.9157181141339 1.6199287723194 1.7124665677718 2.0691097699708 1.5502525499561 1.972280808634 1.2991348161097 1.1226712053375 1.7611981769678 1.6639041273012 0.54186913243198 1.7823209889287 1.720065841787 1.810300429557 1.6571788253224 1.7269453746717 1.6360228699031 1.6037950240532 1.643826833135 1.6451577102591 1.0897440635138 1.7588769068381 1.8667140011912 1.3625101446738 1.7934652447321 1.8128149246142 1.8078672475141 1.6137217031471 1.8055885824824 1.8939231276795 1.7961715343763 1.5389027984669 1.7906024931238 2.0181602024811 1.787426210648 1.8173491031461 2.0048875170225 1.9269499761463 1.683785068316 1.4904282238046 1.7058118282977 1.513792960041 1.4444045791796 1.6215678115248 1.8034964224526 1.4459956297699 1.5988781878082 1.4350688656655 1.560987291478 1.4331387898433 1.3024971770303 1.0081107639624 1.2424924865111 1.3916493797952 1.1991705182854 1.583747219476 1.55121333504 1.7620267981191 1.4190521965784 1.7236537962759 1.7026860685949 1.5437258555251 1.7208428222272 0.54935034447991 1.0936661092131 1.3756764362554 1.1222798168694 1.185059434077 1.5642831999201 1.5191251624705 1.2035484643009 0.52225417776523 0.95591055621022 0.44426093146071 0.57554646331317 1.7346011836026 1.7805342622799 1.6485702364876 1.5745332842299 1.6525621330584 1.615844827717 1.3024438233177 1.0657684793989 1.4704994337735 1.8491325863428 1.2138941950481 1.8998367811114 1.3438720420216 1.2718161291252 1.795152239837 1.5730182852356 1.409571450374 1.5286653787203 1.3325746370676 1.5686472226124 1.7220484978495 1.4798109413167 1.430952459495 1.2902951552743 1.7805098410687 1.5598250497765 1.4821512838252 0.9554652760841 1.8049571355006 1.6189648599702 1.6273092264342 1.4208316856956 1.7906270639705 1.5748962783074 1.2669421519977 1.3714583857335 1.4088903151538 1.5821447313943 1.2695311306112 1.1993131966291 1.5187013738901 1.0815442474896 0.89355699033926 1.0154940301534 1.7272689003563 1.4825267568983 1.7325444797262 1.5483517726778 1.7668038066194 1.3972651220845 1.7246663841653 1.2777064005406 1.5040493412424 1.2942489041067 1.1791809269016 1.5340358384683 1.0177829240501 0.44298184098652 0.93186672561805 1.013972817738 1.3606686612261 0.98196458155918 0.5876915978926 1.2502287332658 1.2130229466278 0.18932640393649 1.5324447956659 1.1911417378821 1.3130350748046 1.175629816604 1.514746687621 1.3707196779957 1.5941276578359 1.4335673993836 1.2491812313536 1.1503224057047 1.5631074072615 1.3059210835716 1.6322502946576 1.3421413349132 1.3660885840519 1.4355255586668 1.6347083199202 1.3649372222755 0.87836277588567 1.3507001095885 1.3997288021223 1.4391962130613 1.0446334704524 1.3892187450989 0.95716959639785 1.0019884075889 1.1049449285492 0.63796735221035 1.3621263065148 1.170792633513 0.94893847755185 0.87313472610088 1.4939466890548 1.4353232228311 1.3188323535137 1.2800973325539 1.5119570275476 1.1575812499639 1.5705045344324 1.3018961179374 1.41832592148 1.2402876986805 1.6135728466359 1.2954385640108 1.6438950248444 1.3452532148556 1.349230951176 1.4640492510144 1.650999744213 1.3334316093336 1.3372323619279 1.4550278614699 1.2611761319398 1.0685853824219 1.3619364294108 1.3578654417445 1.3723543512987 1.2821796875603 1.3035387535297 1.6150154312304 1.5691030759708 1.2910531694853 1.2993407202375 1.4180501463365 1.8437431328331 1.5731539088111 1.2275516136239 1.2905350284284 2.019050037651 1.6324540242962 1.3607860397078 1.2865818114724 2.0313262076752 1.6176217839016 1.3229737488291 1.2641481898882 0.93629790802706 0.90973826644103 0.9426143669336 1.2905475105865 0.67333026840306 1.2177913343567 0.90525078876306 1.2737533953927 0.8641080703733 1.9199056001899 1.5853607799281 1.1880122977473 1.2050313848748 1.8207257343898 1.5533407385126 2.0265350584671 1.8187946392796 2.0148165877375 1.8339283897529 0.74118706405472 1.1782427835976 1.2985535036332 1.1395011249888 1.0626557158009 1.1529943500455 1.2581332621072 1.4983220693587 1.1715135877472 1.265922979047 0.88858538301267 1.0725853179001 1.9552371629446 1.7320823082482 1.5461562249945 1.2221151326585 1.1035350606751 1.1983622985452 0.99952324497934 0.26608471519513 0.73538774035409 0.62181139540062 0.85461413729909 0.58692565271913 1.7301179330102 1.6658432550936 1.3388851919378 1.2373898662413 1.3951749198847 1.1600153862094 1.2014550721537 1.2915694726556 1.1356122140563 1.136860755786 1.1126746762681 1.2274242704415 1.3457942022332 1.0787172227726 1.1525223565282 1.1522126177233 1.1493975179318 1.0813332474903 1.118828088791 1.2207230048889 0.8486984589476 1.4057847827324 1.0642310715046 0.98474767802429 0.95102854677565 1.1533724375815 1.1198860469654 1.2053608220688 1.5180342996606 1.4246593500342 1.1878479895006 1.2005252930665 1.2037970607943 1.3967634072665 1.2604935096997 0.89444066997375 1.073135162564 1.0617999950865 1.1983346814084 1.0580307590438 1.2911901137624 1.1727567391448 0.99740824871952 1.0686933014089 0.98185680872917 1.0376949830886 1.1544892299589 1.2236161734213 0.95857359531741 1.3454298541803 1.2676893147528 1.30495190977 1.1300811105903 1.0768269249413 1.1235980417571 1.1712301505038 1.121894498528 1.0115288417431 0.93356217338582 0.99671912607571 1.3031731676802 1.4085783140053 1.1229489568626 1.0041023208469 0.89865926693339 0.95139214874031 1.0251376594094 0.92529756309641 1.0892586605911 0.93492761916861 0.96675000430443 0.87023342029901 1.0927827243177 1.2578918265253 1.1017998059409 1.2218131200595 1.2235438531383 1.6962112030473 0.96188278661188 0.83166306752505 0.51423042072956 0.68192598048305 0.88172079119805 0.89135414090847 0.72979442840018 0.75885885417135 0.89261414139005 0.9678253421097 0.80821772934798 0.86896388698891 0.9035485701428 0.97615323914118 0.8827757959113 1.0179191842869 0.99381456010713 1.0767706868023 0.73913173558212 0.7274252692957 0.98489498640479 1.008950799648 0.85884904787536 0.96329576681753 0.86932180588848 0.84981403590883 1.0494061919408 0.81494087444115 1.0923594499198 1.1279681228323 0.91745318126792 1.1161630252316 0.7432651185009 0.77944498155219 0.87232289833491 0.89291537639849 1.0761168628614 1.2805022502855 1.3100819899987 0.81630822822852 0.78721587064204 0.82216479676705 0.97685314306863 0.91273249030797 0.97643712902064 0.8204156550767 0.83265738089579 0.83116764928352 0.8899131548807 0.88575390249751 0.74683503360095 1.3324897202731 0.7628668794157 0.77117384251654 0.78710882384147 0.7332778346638 0.72688972839748 0.69448479110312 0.76542631453154 0.82059684985426 0.77725925711899 0.7447078012187 0.7873958468639 0.77937037311904 0.64444556147462 0.74656704883526 0.77203277210889 0.7744420766072 1.3993755587201 0.69303303244727 0.72828688211685 1.0639850530946 0.74776786409444 0.66080523844329 0.72871683435659 0.62309476276594 0.76900115116473 0.77801829273953 0.73161855333952 0.68203670548464 0.7229303134755 1.4467938993452 0.68112044664953 0.72025248664727 0.67338937489302 1.2342735497371 0.80730221029558 0.72332705156896 0.81880016293277 0.80057989578678 0.71568924422651 0.66885239964282 1.1388567883213 0.63297026669967 0.66992967622827 0.63115900399608 0.68114789433236 0.73087290825352 0.70034637793342 0.64868374771185 0.68888499744814 0.6295935575941 0.64793846445081 0.81520225083042 0.69274427230305 0.68882150163907 0.85987098518099 0.64966266528327 0.73646023820712 1.0262968998891 0.80180555357132 0.84848071115062 0.62968144994456 0.61862382736827 0.57929101264558 0.71337852945534 0.65440199194596 0.63080319579474 0.67496193953475 0.59462538043459 0.60529311529398 0.61274995025636 0.64937783394238 0.99870529589148 1.1045319933926 0.59892996106262 1.2216460990328 0.5970070714299 0.50587819142255 0.58310038316147 0.99867094875531 0.55067269321591 0.78421096137631 1.1000274566364 1.4593170461685 0.7043144515348 0.58869331569941 0.61181027461387 0.65587173036783 1.5608209154296 0.5104201152072 1.5125505948563 1.1345883937486 1.6915871864556 1.3871749754662 0.8928502603225 0.99214968408886 1.5468524902193 1.3880540306133 1.4168288050079 1.2312250152886 0.8662746077758 1.2126886205786 1.0756809862382 1.2690952010874 0.55784555702061 1.2507553968837 1.0930502321485 1.1564023441178 0.85589475624517 0.98312247234356 0.76956532951078 0.8482446773362 0.98647131582078 1.1437888302403 0.95422599761508 0.43461759800016 1.4926115812029 1.2704714739478 1.1243492127424 0.83808944046475 1.3258431914047 0.20197321757366 1.0334355014577 1.4026288200104 1.2745530996353 1.0026381545315 1.1767591020999 0.7999133106557 1.3701830984365 0.63412880519953 0.99732378983333 0.75478705281348 0.65799835988101 1.4752969825793 0.96716660148957 1.6766871166212 1.5537904663803 1.477450856542 1.1317234091332 1.3574641961997 1.3678397522172 1.1148312446583 1.2345562291261 1.1831815249835 0.90063585165013 1.6179665041219 0.80883321992421 1.431786477837 1.244412058897 1.3150936685023 1.3454755071423 1.2832301619907 1.2616817189457 1.103772066434 1.1578118484795 1.3393758838236 1.2570866420377 1.2239823178905 1.2534315191263 1.1605259276034 1.2550804774251 0.9455142008224 1.1757234635888 1.2406173849895 1.1356852684451 1.2877984492739 1.1527758454241 1.0699442598436 1.1684736406332 0.9385323313939 1.1411663062422 1.076979182766 1.0724229906916 1.2913293927346 1.241865359431 1.3112245139433 1.3313722637995 1.1336714999802 1.2223290834575 1.3289930313944 1.7967575679379 0.94673371039655 1.3357404313383 1.0270301244525 1.0321821343727 1.2261284378943 1.308846980275 1.5486028975666 1.4194008045766 1.1313903228719 1.1643351218182 1.0209305329137 1.1403011185095 1.0046318356943 1.3352948815535 1.2866381892613 1.4129240304289 0.98704546814821 1.3267313222971 0.9956608011407 0.94704838201513 1.0550822087537 0.88803338008657 0.92628712048681 0.97443209209252 1.010955133044 1.13954857919 0.71462628592958 0.88228445613861 0.96655321198978 0.9148264219395 1.0957699525916 1.0455356672149 1.0514897388897 1.013023123653 1.2831461608904 0.65870377117242 0.87739855977388 0.99399139091291 0.98195863169005 1.0606921230124 0.87189295989301 0.94047564529874 0.51867424024134 0.65241544470523 0.99493787547967 0.73462884987161 0.40394300346632 0.79531760726435 1.3544814344813 0.56367692967454 1.2120686007963 0.50228144109514 0.54466209959255 0.73250196618137 0.63516794856536 1.0711338823241 0.5164100219913 0.57453860360418 0.53766014052402 0.54467751451832 0.66844452322045 0.76032908378197 0.77273667580777 0.82081276135047 0.67410794716078 1.092606258285 1.3141993892911 1.1938035632344 1.1677292209947 0.86386327163532 0.6231561801142 1.0072219043336 0.99042392935243 0.93659882800377 0.83423177389631 0.30089537584735 1.2895246099309 1.2333339291113 1.1781559477216 0.39591973138419 0.87933633481021 0.61656995614414 0.54603937460179 0.80177526545578 0.80958084445815 1.0475112479152 1.0129840506089 0.55860903120534 1.4088377924123 1.25482538059 1.3119258597951 1.1165364814714 1.0088753016446 1.4607855822778 1.1919531399304 1.2432346561135 1.2052557897185 1.1043820166264 1.1902196666163 1.0630428493769 1.3076852962249 1.0849156794631 0.93059434084545 1.1237067485598 0.99561802470811 1.2228722493858 1.0305209609647 1.2752134101554 0.86542850966197 0.94050086399083 0.99760720620169 0.72397962114947 0.93376185497294 0.99442846393149 0.90782403701914 1.186784