# vtk DataFile Version 3.0
d-2__ created by libgimli-v1.5.0-1-g5991b6ac
ASCII
DATASET UNSTRUCTURED_GRID
POINTS 3503 double
375.1578521782	-10.539151806402	0
374.30878561874	-11.333149474909	0
375.3080427115	-11.55073527979	0
353.15258822552	-10.422449633894	0
354.18292561154	-11.057857317938	0
354.09071294025	-10.152986335986	0
314.51658123431	-21.368484601131	0
314.96475377565	-20.187401839325	0
314.09486661769	-19.791134994325	0
335.06063641948	-18.727786604686	0
333.91590926067	-19.498034653476	0
334.91220138096	-19.749030751392	0
312.87716728938	-15.00604677148	0
313.69828752852	-15.580536085108	0
313.98359442208	-14.619871526021	0
341.70988577375	-28.660260789144	0
342	-30	0
343	-29.123588643481	0
348.7531633215	-17.546589094766	0
347.86234665953	-16.451218929466	0
347.86425349804	-17.846833147372	0
375.15001567568	-2.6543707282398	0
375.08920457871	-4.3757358784135	0
376.22037756121	-4.0797248193676	0
331.24701524002	-29.00972685821	0
331.5383179196	-27.800276696779	0
330.46657948895	-28.04094051305	0
337.48803825856	-27.051366115864	0
338.32343370468	-27.334799680269	0
338.02796277779	-26.445571565557	0
357.20605079121	-14.709569472276	0
357.85756660241	-13.654967184957	0
356.78162696934	-13.544870688863	0
328.54735744887	-23.256550472402	0
327.77170479073	-22.704596806248	0
327.40759358459	-23.530845980281	0
346.62961148435	-22.534259875623	0
345.7207320123	-21.54193898275	0
345.78582542797	-22.39470673296	0
347.28490189136	-26.096656943139	0
346.55078637646	-26.971375159464	0
347.59285754109	-27.19630273383	0
333.01506724416	-16.343217962281	0
333.95176015367	-16.823038042938	0
334.02850253057	-15.519019049605	0
341.11027567368	-27.864123774538	0
341.93773697254	-27.308539202209	0
348.23976421434	-26.422192246908	0
348.23606287066	-25.506374143487	0
340.7815083627	-22.561631757902	0
339.95527348683	-23.411233939364	0
341.08560404588	-23.767381049592	0
328.20142864825	-19.8594185078	0
327.41468444396	-20.437670481708	0
328.6128679825	-20.679263753271	0
344.63906255701	-27.131301422613	0
344.91507157142	-25.969027191901	0
343.75330397773	-26.247161011632	0
342.60533908547	-26.367001824738	0
341.59001971585	-26.354536308704	0
342.77127924898	-28.039077133929	0
343.87641950859	-28.123595788103	0
342.98714802434	-24.466235767669	0
343.99938007848	-23.757278462125	0
342.82766487631	-23.364445574604	0
343.3902395715	-27.213238459131	0
344	-30	0
344.47000762137	-29.026773541979	0
345.4283684451	-28.527152251101	0
345.03125	-30	0
342.10804674891	-25.516345982921	0
343.09257647957	-25.476143512093	0
340.2340649423	-27.389127803649	0
341	-30	0
345.56872553926	-26.738162001498	0
346.41565706211	-25.356068680999	0
344.65932317038	-24.802127402381	0
341.28276686316	-24.825461740858	0
340.76171399362	-25.767221706505	0
340.5	-28.8771229825	0
340	-30	0
341.86534410235	-23.171226400586	0
342.02816341031	-24.13915449407	0
345.86814224652	-27.661654107097	0
346.75696928487	-27.857963937904	0
339.71109539013	-24.570917083129	0
339	-30	0
339.5	-29.104597936777	0
347.09375	-30	0
348.125	-30	0
347.94100745271	-28.986442887947	0
346.11461824861	-29.104624705985	0
338.99376444428	-23.814330701581	0
339.11289562393	-25.324175349654	0
339.80007322831	-26.056412468667	0
338.16751139807	-28.66810303358	0
346.93840036055	-28.74994701989	0
348.27804492159	-28.013017481755	0
345.67470620743	-24.64403880213	0
338.21670176545	-24.974779378868	0
338.25762748325	-25.727537191637	0
342.51081497097	-22.449493860525	0
341.77753932575	-21.8171669437	0
346.00484330547	-23.221435925561	0
345.08565052908	-23.802012599889	0
343.52096580134	-22.493405775632	0
343.07764533576	-21.050837360621	0
339.03989993998	-20.139486053589	0
338.05817368029	-21.216453195392	0
339.57790204509	-20.912859002522	0
347.59468273575	-24.852640236576	0
339.75341858333	-22.388374595877	0
340.49294446791	-21.137022665224	0
339.32785194185	-27.993107166835	0
339.44621372508	-26.908666170907	0
349.32293879219	-28.919860490172	0
350.1875	-30	0
350.38733685352	-28.953973165014	0
346.67900715046	-24.340483727014	0
349.2451130525	-26.505912038336	0
344.79971102888	-22.731845314405	0
350.48339173151	-25.804360955916	0
349.06582591228	-25.67780995318	0
346.99172996874	-23.389488736344	0
348.23524534544	-24.087130531198	0
348.87668944105	-24.851901763769	0
349.83477727934	-25.067106214402	0
339.00599169901	-21.661504806153	0
338.68805901562	-22.736146736974	0
341.6699128258	-20.396834493094	0
343.00311025676	-20.002223728293	0
337.64588799407	-22.601008203293	0
337.97354771478	-23.599518077485	0
336.5696025807	-22.61171969468	0
344.01022177956	-20.303674235911	0
340.54565406524	-19.914996930877	0
337.10364236907	-24.462448472632	0
336.20853425439	-23.62568946289	0
342.68199931048	-17.840113055478	0
341.22406946366	-18.187754786985	0
342.34580285034	-19.1818012753	0
335.14053768741	-22.674110553206	0
337.12375843727	-21.688997464684	0
336.33717320029	-25.697849369013	0
336.05041231577	-24.691980125629	0
335.82963242213	-22.06026340325	0
334.93358930147	-23.981495255923	0
334.09073184732	-23.178006286527	0
336.33951510241	-21.088377353552	0
334.06417241352	-21.777153276644	0
332.94057652017	-22.995946034449	0
336	-30	0
338	-30	0
337	-29.19774860681	0
348.74329295316	-23.420805856725	0
348.6792793684	-22.585339995972	0
347.95812535801	-23.128209221327	0
350.3501812348	-24.197671888416	0
349.45939240383	-27.707232445869	0
351.734375	-29.144248289179	0
352.84882294577	-27.889530040813	0
351.21875	-28.288496578358	0
351.34132639573	-24.395632880694	0
351.20928807154	-27.311279310884	0
351.88182217129	-26.602236998598	0
349.21517795501	-16.794133156697	0
350.32058079816	-17.10394245671	0
350.10490030143	-16.258997873637	0
345.48526666967	-19.459093843261	0
345.58821240599	-18.247993180035	0
344.35288139517	-19.158887816403	0
346.65649586073	-19.484436504778	0
346.25126390996	-20.541681308597	0
347.61936264003	-20.459777442039	0
338.81243336677	-26.237938671526	0
337.25429811215	-26.200727719844	0
337.48612896069	-25.391990373751	0
344.3789271865	-21.440339481862	0
347.84391578498	-19.275149678956	0
347.09871655868	-18.52029622732	0
337.60176175697	-27.926173010404	0
336.67505358025	-27.817799716283	0
347.86829711434	-22.189009469588	0
348.66449579864	-21.682814900134	0
347.05594685479	-21.709163303783	0
345.11942480936	-20.572008845279	0
349.70082943376	-23.423140079513	0
335.314284051	-25.479440285085	0
334.5	-28.976922582051	0
334.33986495096	-27.849516635116	0
333.34910807472	-27.740283311285	0
336.53572602175	-26.855611412651	0
335.54331808192	-26.911276082219	0
335.81738102898	-28.747995168995	0
333.93056661948	-24.189841038622	0
334.26590313415	-25.217182746704	0
335.33231591928	-27.881566878836	0
343.34799546399	-19.052385492896	0
347.86639712078	-21.306749084285	0
332.44066622941	-25.866570505767	0
331.52450997757	-25.650873015122	0
331.75543805194	-26.723521764444	0
332.96839617983	-23.980280207154	0
331.88423136108	-24.781121204831	0
333.22370725625	-24.931334333518	0
334.54274587168	-26.337090073084	0
348.37824841791	-19.954693469505	0
348.97717262232	-19.284064923524	0
343.87964211248	-16.305048663342	0
344.02122269338	-17.494228580989	0
344.5770577457	-16.833546828862	0
335.36702793844	-21.261729140618	0
334.35728045579	-20.613703982693	0
332.76716750013	-20.831752502658	0
331.97935942445	-22.7427623764	0
331.37603452391	-23.532723979393	0
330.45030150643	-23.147364895966	0
329.85375531869	-23.953352419898	0
329.62823670155	-24.971853382768	0
330.72649853393	-24.524773576581	0
333.28642636179	-26.745495841665	0
334	-30	0
332.89841818658	-28.629333215161	0
333	-30	0
335	-30	0
351.1273795905	-22.886616896716	0
349.71557672976	-13.62730617622	0
349.79927624224	-15.266743088145	0
350.74835931206	-13.720487022207	0
348.5970701767	-20.790999731451	0
344.3667220018	-18.290761620276	0
343.49995917222	-18.193526018748	0
339.89448278604	-18.879573750623	0
341.31155237406	-19.218968735785	0
344.92337033645	-17.624445414311	0
336.05068363238	-18.436618124115	0
335.86757826531	-19.371073030239	0
336.74969929197	-19.083232889388	0
331.77701714214	-20.558836602387	0
332.59541827209	-19.522254411682	0
331.6194112034	-19.298349428515	0
337.5749989037	-20.287490296183	0
337.55751687101	-18.626702264589	0
337.34493491814	-17.714790994284	0
329.46044245548	-22.987170320251	0
328.98001713547	-24.018429056599	0
330.77827746474	-26.224462347356	0
343.0048142347	-16.324415146777	0
336.62798969546	-20.003111265311	0
335.69751075461	-20.337636024226	0
332.70858064783	-21.925490941256	0
331.53111948511	-21.855563849241	0
329.84415997071	-25.927850793118	0
328.95499476284	-21.890591080509	0
328.62855296423	-24.954454290973	0
332.51290758714	-27.293603906812	0
330.15948975148	-21.806002538944	0
330.045090233	-26.914273864359	0
329.14845038392	-27.891882928412	0
330.87360921817	-21.047441701583	0
349.92047092515	-22.113625364204	0
350.84628384118	-15.532137452466	0
351.40174782903	-16.840228582855	0
346.91459909339	-17.475678412379	0
345.43954356407	-16.873185144727	0
341.9604159402	-16.112852819254	0
342.40979727961	-15.146631919165	0
343.76785714286	-14.975595238095	0
343.22758013134	-14.111040438175	0
336.09704691682	-15.119919281858	0
337.27778470988	-15.464703559456	0
336.71577863016	-14.370552244331	0
329.10049411687	-26.566219812261	0
330	-30	0
332	-30	0
329.50754699687	-20.476833484984	0
330.91122877749	-20.006304858785	0
329.51848443013	-19.265692592857	0
327.66598256562	-19.008729177056	0
326.46803021755	-20.198531267227	0
348.70195976579	-18.428079682461	0
346.71599330899	-16.341324629915	0
344.64764407248	-15.885677865779	0
344.98160547133	-14.682542506669	0
349.63137339717	-17.638210725982	0
348.78697584748	-15.643448532263	0
339.37208021104	-18.143939206744	0
338.6395644571	-19.049087909466	0
344.16260929477	-13.950514570436	0
335.32141449427	-15.70538852538	0
340.06553628742	-11.539787515711	0
340.81850540584	-12.101186450115	0
340.38375806882	-10.656121201605	0
333.90555425581	-18.246885988841	0
334.82969977222	-17.403419764475	0
336.42152784049	-17.559573016758	0
[...]
CELL_DATA 6713
SCALARS Coverage double 1
LOOKUP_TABLE default
0.26453229387684 0.28084959167388 -0.39250768690541 -0.31417005505236 -0.13306517068466 -0.61176406563049 -0.2294413602336 0.56486016942385 -0.62485725552887 -0.54977541371103 -0.016613224676954 -0.45599612374011 -0.36082730210995 -0.52639608378441 -0.20515127092166 -0.57120307465629 -0.50382535453397 -0.40262521226289 -0.35443351810083 -0.51655696257209 -0.52897201799485 -0.58445894126128 -0.42410227998986 -0.55553042694719 -0.61382791162372 -0.58843776806887 -0.52703508669225 -0.5878629994194 -0.62046809701539 -0.60811850207712 -0.53196768730835 -0.46651738500564 -0.54769961206787 -0.61980043869761 -0.55935875799691 -0.56891125488351 -0.55421197934644 -0.52380402757472 -0.56291589154081 -0.50316426764812 -0.46218795258131 -0.49760748278164 -0.47896491577275 -0.62723509630414 -0.48397174020045 -0.50204314132296 -0.41495746227094 -0.56446313969674 -0.53973239930404 -0.55038601429608 -0.49623181933589 -0.52407201487399 -0.46011605446822 -0.50227317100047 -0.47648744597019 -0.63347053327406 -0.5876537997788 -0.6149964987735 -0.62360646056086 -0.62500593292828 -0.48296058030278 -0.5801676543177 -0.51873638093294 -0.41760988812556 -0.43802755783857 -0.54183174290622 -0.58069556045219 -0.48599895541637 -0.62505919052713 -0.58060800598566 -0.47306583480618 -0.45754648605931 -0.44595283655956 -0.4248836871603 -0.44329123900967 -0.40178371891288 -0.49570813682652 -0.43692361786512 -0.37443931177026 -0.42425565973662 -0.3949943224837 -0.34967277656187 -0.3247614328284 -0.38805922077722 -0.37558181576377 -0.38527678544634 -0.35078381228187 -0.46662576878589 -0.43413142603482 -0.48395173035289 -0.35047307154777 -0.58173617666112 -0.56260811244001 -0.48716716511398 -0.53570662571841 -0.50854532276815 -0.58753648369402 -0.54139934262244 -0.55097675413472 -0.58257685063 -0.59194917899009 -0.62340220801415 -0.50741897409656 -0.55815087770814 -0.59429937867086 -0.45821802836547 -0.54350094436075 -0.40374351473921 -0.51095119612706 -0.42782699331752 -0.52622080279792 -0.51138695590764 -0.54618889927855 -0.50304214497134 -0.48140002708553 -0.48344967562329 -0.39490709365369 -0.43495788518951 -0.39428248431165 -0.37451176524773 -0.35945602103695 -0.30464110303479 -0.41496682455909 -0.41695231503325 -0.35514770991208 -0.41550757064463 -0.39656577622262 -0.45688924001432 -0.30403279229321 -0.30874795995639 -0.37732075997705 -0.41767814760147 -0.45628321417191 -0.46181668419851 -0.2449672945245 -0.4288239242323 -0.37045780963949 -0.39070219250268 -0.42757340183022 -0.49573173308599 -0.31078382530954 -0.40412187820749 -0.44508990131391 -0.37578448854047 -0.42401977342145 -0.64165217547948 -0.40038918067516 -0.47349582713567 -0.47516622095791 -0.4848013658841 -0.55162473797194 -0.60799351206773 -0.47598941955368 -0.4871951774232 -0.54183538296265 -0.46409050522818 -0.20657236141816 -0.2667093548509 -0.30355012980505 -0.4210581521575 -0.50673182692898 -0.46300704099071 -0.52913623611273 -0.52776440572461 -0.54176660027845 -0.56191880394173 -0.52537958546784 -0.62871428041047 -0.46827636123974 -0.51466143897394 -0.39390640767542 -0.35993746473726 -0.43746210265666 -0.40157484466074 -0.47364455449742 -0.45987589360121 -0.45055117660177 -0.42640078254635 -0.27746619640514 -0.34709162571245 -0.46706209483301 -0.58592009229236 -0.58375572227934 -0.57429982804589 -0.38473999489506 -0.31735316361995 -0.44828111233376 -0.38495831813803 -0.36981731880163 -0.35703787509246 -0.39859507553904 -0.36097895736863 -0.29021901170247 -0.32609149666634 -0.36021983907008 -0.38226547792045 -0.43816548419207 -0.4173376821485 -0.49224425947131 -0.61297318824149 -0.60135437266651 -0.63219376055566 -0.60017931763384 -0.54176009012536 -0.56833871402851 -0.60560220496097 -0.60896761278007 -0.31796312602862 -0.29574878601988 -0.44221680974944 -0.50334134301714 -0.41985221704964 -0.46107886864035 -0.53680143906815 -0.5171402957584 -0.49150072372886 -0.63496401870894 -0.57068364855797 -0.60278951292891 -0.5434728267398 -0.54638981224292 -0.5222060038742 -0.54310208167951 -0.50902386883899 -0.49810114252354 -0.48804143829679 -0.49330192833089 -0.53666308124002 -0.56895304661215 -0.57895917321828 -0.49366848114232 -0.32713196973548 -0.28092602733205 -0.35569447827899 -0.35445591362686 -0.55289856608156 -0.49593170678355 -0.32469201350675 -0.57138220223896 -0.30043321246656 -0.33351757890445 -0.32994668759285 -0.29115474667068 -0.20354215213959 -0.27211753629744 -0.25109851781646 -0.39614645823774 -0.46452181129702 -0.37246591856363 -0.37565815125985 -0.49266839123039 -0.54040809135345 -0.45806050107443 -0.49746058886885 -0.45744156401344 -0.4869949680172 -0.45198929440112 -0.5027493685693 -0.48369419453335 -0.53704676273483 -0.53499095689417 -0.52929893248901 -0.52375192600554 -0.61122279180969 -0.53919039558414 -0.5724471855918 -0.65285119989742 -0.64305599750078 -0.42649424254699 -0.048034438024459 -0.29531690488249 -0.31387552611412 -0.27714492331747 -0.28294903761925 -0.25811779110795 -0.24853081777654 -0.25659918441208 -0.32821340436803 -0.26750514861688 -0.22103191048457 -0.29397092732737 -0.34172702047492 -0.35464110710474 -0.27268044964504 -0.46891897645166 -0.50019610385033 -0.53010576919661 -0.52608016774993 -0.32929936268843 -0.64496788059636 -0.26430157538714 -0.21441755674487 -0.33687224400478 -0.31024729022 -0.27356795937096 -0.33848288476607 -0.41943502369014 -0.47786760500889 -0.52986094198265 -0.4365257920221 -0.50365536674255 -0.53079578536269 -0.58757938871429 -0.47703077349481 -0.46847564717351 -0.45486820335215 -0.42979661856896 -0.42737726951689 -0.60126257655487 -0.38900439214169 -0.43241622904995 -0.38593840007523 -0.39649676911962 -0.65190654929886 -0.61271831293365 -0.63955523167951 -0.58594723500727 -0.56391371156501 -0.39712470002242 -0.18408158250005 -0.24659629927911 -0.23184522835892 -0.28003748327584 -0.28320781238756 -0.16445566569557 -0.097574686729464 -0.32568271195399 -0.1169281163789 -0.51906020488599 -0.55241088398662 -0.57822927523512 -0.58314346619291 -0.55302522360592 -0.66222468441851 -0.34583154042023 -0.35080547469389 -0.34553791743296 -0.38786156912725 -0.38478725359229 -0.33749612291719 -0.26474025010371 -0.24957190251505 -0.27708704800198 -0.22732798186655 -0.21004855883234 -0.24425002544979 -0.12276093234114 -0.24580262664046 -0.18633527263807 -0.20378932058752 -0.29903733122445 -0.32852968307584 -0.35639378051501 -0.2959710149324 -0.35431308749596 -0.33783292784109 -0.3788630409436 -0.34572306596652 -0.26080840600262 -0.32293998489816 -0.34276114390796 -0.29891809305435 -0.076672984523801 -0.1907832823686 -0.31207080519054 -0.27618849940143 0.20075621806139 -0.30205476663423 -0.26213120283577 -0.30991899533241 -0.23741120834702 -0.26847375454622 -0.2778902394382 -0.27944955783316 -0.38379430718951 -0.3632125320643 -0.34339081222113 -0.36608344615279 -0.3318194687694 -0.32980284496493 -0.30248521533438 -0.31532007073805 -0.38982630842303 -0.41629061931708 -0.11303254393969 0.021499468997418 -0.16758249223046 -0.14730420553175 -0.2600543976791 -0.30827297632207 -0.29724979462704 -0.34399828026148 -0.28520070761163 -0.24849031376043 -0.31214628868665 -0.31301310897759 -0.24664487813764 -0.34077007876797 -0.37464182301615 -0.4131053937326 -0.1543161786274 -0.087726824544838 -0.15092808945334 -0.18133985873169 -0.092746854110998 -0.09699000568761 -0.1722434579266 -0.21281237240876 -0.23571179365729 -0.29608578251235 -0.31659555459527 -0.28231616822807 -0.25841268284382 -0.24156739882555 -0.22528431588651 -0.19501932383521 -0.12425931754568 -0.22145334588173 0.012348811959876 -0.18173359673833 -0.14576059189722 -0.27604551988565 -0.39833785543021 -0.30111561031304 -0.30281759028181 -0.31897543283345 -0.1523667128215 0.22344741892697 -0.13288979804474 -0.16499973769909 -0.23313204983627 -0.23092844405373 -0.1932093167459 -0.18373429897101 -0.23787035020149 -0.25547734182813 -0.1556937732294 -0.19556917599274 -0.22997357758321 -0.24219867296047 -0.27245140918644 -0.25114654752743 -0.1168140511684 -0.26272034812346 -0.23439425619726 -0.25829288072335 -0.13097492358841 -0.16646050786525 -0.28473917341505 -0.2776260307635 -0.29902713115613 -0.32433218308808 -0.24190974111416 -0.27268147769053 -0.045479757442063 0.092133882380041 -0.18303585227111 -0.099040536131041 -0.25658897147319 -0.22358003558852 0.055586412411061 0.25421422951493 -0.3715751129272 -0.28183302900386 -0.2904519037638 0.23486270051154 -0.0052359278529233 -0.035201112149765 -0.17048288985595 0.048456459130098 -0.28250991737724 -0.30695008371224 -0.2409565583252 -0.33892087158382 -0.20968457281818 -0.22015551490846 -0.092090869360392 -0.058108431185742 -0.081964130976795 -0.02013888630465 -0.038048713842549 0.036944113385775 -0.13630238219988 -0.0067441735530562 -0.029663654845843 -0.077197403000078 -0.19983177853953 -0.1700163775589 -0.24085463031437 -0.16244465579654 -0.22423922968013 -0.14163872955438 -0.048007879831791 0.40179544198855 0.095022935417407 0.064761064398702 0.32569626559625 -0.11243528401795 0.34141454128954 -0.16225836796522 -0.070352880395323 -0.16508621893815 0.0078075589439531 -0.19956679993327 0.0041123657936822 -0.05293370985701 0.3664633410084 -0.10320282612339 -0.21425294297547 -0.22290431749122 0.17832427233973 0.28970928061102 -0.12860341992979 -0.25916854370245 -0.21186559413591 -0.24413619154643 -0.23621025428162 -0.22388081844469 -0.077165655210564 0.1777169643007 0.13755334524239 -0.12542171308958 0.059370359407744 0.090002880319745 -0.033254890302972 0.018245958043795 0.0095588647176631 0.021550329689661 0.32790157175053 -0.098914711277081 -0.18668141537271 -0.17531041828357 -0.29309154878009 -0.25915136105135 -0.29742993467837 -0.30496164220843 0.30456309600667 0.24906901876844 0.32989734781378 0.45267141938675 0.24147787439426 0.042317499627369 0.22874993167999 0.40835665852401 0.31251760840106 0.16196687365427 0.21382391538194 0.25250161978651 0.11090524330535 0.15922325601131 0.23545923624699 0.33965509213911 0.40072356917658 0.36670584973872 0.45761429962585 0.37583564738223 0.4414145101219 -0.1915558140244 0.45893376634263 -0.093741293563124 -0.034935551979168 0.00069053718994453 -0.045009923302389 0.14142755445207 0.26922588743126 0.10405952601328 0.38979702429052 0.41300976371962 -0.058086018523818 0.039496351132186 -0.10117488765797 -0.031453574138739 0.15631264642294 0.192047820553 -0.063513695235017 -0.015974228995031 0.13869521296588 0.042896519710761 0.12712370389228 0.12611958312109 0.02869703530927 0.061517407856365 0.015110633834329 0.16500536506132 0.12860579725964 0.09873497766121 -0.13908759054377 0.061562774239647 0.15407843433034 0.26775047383021 0.14307177127614 0.26680567589114 -0.17032403264089 -0.23709887022676 -0.032554109065271 -0.0060025520906432 -0.24054243848967 -0.25620033101398 -0.18470093316231 -0.091905736763472 -0.21595014096 -0.26858790196287 -0.22238925836089 -0.25361310142635 -0.29082169559475 -0.27564733367061 -0.1286041353105 -0.24117599883019 -0.29483538616805 -0.33167352070106 -0.25567958727869 -0.27486181174376 -0.32739687113861 -0.32706385793475 -0.15714157371806 -0.10719067089097 -0.18726790516321 -0.10642625359679 -0.081931039447033 0.0029403123876607 0.02958958452789 -0.1892082089259 -0.14204853886492 -0.42187259595979 -0.27784354223207 -0.29908893550799 -0.019140771284454 0.03993920893544 0.19464872558007 0.27363322487355 0.40611493304227 0.15656511294933 -0.26069655384402 -0.47725190756355 0.050189199685758 0.15593727670932 -0.17631953182307 -0.026301202902595 0.41175643383281 0.47288971963681 0.27497694824606 0.42592363033509 0.29316345987521 0.15175097069826 0.2500343745889 0.33432280800238 0.384690519244 0.16292840159102 0.20699308870505 -0.025450862630411 0.23889528636916 0.060076847327434 0.35138126840125 -0.015205531607854 0.46732736013244 0.37816756571398 -0.13164108604237 -0.012476423153123 -0.22455984836934 -0.1771232399669 0.10151550242444 0.011410587413556 0.36022500499712 0.42644190744243 0.26121733168155 0.38815946561622 0.44322202712479 0.43064307408632 0.23319399068976 0.23626672202375 0.30924068692542 0.45608122539575 0.16145708411105 0.18179637536977 0.24285871955351 0.40060041634316 0.060288037199304 0.16310723684999 0.22692663945592 0.43657445453611 0.17808771740526 0.16256538535764 0.23891632432441 0.27347083067765 0.1903886255043 0.078888088521595 0.28995948275338 0.39090658649111 0.26126881609943 0.17945632276862 0.38185569210838 0.3018640526916 0.33005488695952 0.37441638546 0.45502741629436 0.30731076088731 0.31064949129759 0.38222678751933 0.37297880522074 0.43287041716262 0.38888181074365 0.42730817906693 0.36283633644068 0.3431839628918 0.35581318406358 0.43067949576635 0.36079946284515 0.36665996080194 0.16040710428629 0.27832177882458 0.087676083364502 0.12554756570822 0.16768993827416 -0.092090929756677 0.25318601100421 0.18884288131182 0.066984080693884 0.023118883915101 0.29113599320923 0.13993424094463 0.36718445748079 0.4163560576628 0.078931592429179 0.15133076970561 0.049027773193147 0.060523108280215 0.17887765818295 0.080971937605793 -0.0070802653035728 0.079896641756479 0.2922414497891 0.26977107380605 0.48729097917509 0.48406489816389 -0.10680496322896 -0.12678085289533 0.33358956561345 0.21865799367106 0.087930310723122 0.2527651184979 0.2805871897159 0.32446168520577 0.36698818393909 0.33029583673221 0.38041143679547 0.45815045459192 0.31627307283817 0.49613066962391 0.28620627752548 0.35000089806292 0.31821028546174 0.42817913031328 0.41319237741846 0.46734609509749 -0.14491642591296 0.0059145573148418 -0.096513764866694 -0.044363764670741 -0.12787025908619 -0.16291922386909 -0.10855727009389 -0.1958088585953 -0.055982951202483 -0.29246571673571 0.41599515950569 0.42895443192276 0.44338292263397 0.43650965855295 0.46817166872159 0.46384390807336 0.43777456205472 0.42663661179387 0.42911719399865 0.49889582213834 -0.19277663644075 0.37126388704608 0.48835483558371 -0.27187169281362 0.4688239575472 0.44206501247889 0.44182582026252 0.49826503462789 -0.14743527784389 -0.063211509650146 -0.20004137013927 -0.17836382338699 0.0033558511710115 0.16973938380772 0.40039988728137 -0.12230121564703 0.35767145746348 0.42384820914987 0.39863863887696 0.39913774142612 0.46812371844175 0.42994235624915 0.39904508331488 0.51495308079506 0.39546720926482 0.41848622777843 0.43493981622162 0.31640848009286 0.46692953894881 0.44434925341515 0.43232326751952 0.40080159255786 0.16811761157358 -0.060331922851753 0.34225365152222 0.28896648544824 0.11065913098932 -0.055490430796599 -0.26431772401893 0.43538402811782 0.3940854045398 0.19841823100976 0.138336794247 0.28343100151697 0.0051928336785059 -0.20149002257198 -0.053791453301684 0.3284930829732 -0.3044434235105 0.0056466011061993 -0.23925790685492 -0.20072838452485 -0.15633793288321 -0.21268178459315 0.20230248255747 -0.066157644987521 0.29588140756665 0.37526856724246 0.34637777041013 0.34628162197201 0.41778130183264 0.062865946379291 0.37815830192877 0.40595634346985 0.44041465955174 0.37545166389209 0.43580232112096 0.39877723548878 0.39778464315462 0.37121343266343 0.39376812517967 0.12189321810494 0.37637198822185 0.5540813573802 0.040242691639482 0.43657604267594 0.07679645982696 0.19784248346469 0.04685357680818 0.22088934537697 0.34510678945637 0.37963044243869 0.33790175950816 0.39668868640558 0.29917116356759 0.34688362754658 0.40964513017027 0.39132806128265 0.28864974737031 0.21475305938743 0.42090103821773 0.36945235016452 0.46579191554794 0.4167369953502 0.43899781206794 0.32177169050153 0.19944276627957 0.011441448048727 0.45182078536812 0.41741973588858 0.17659381130997 0.12756156403281 0.50090514953455 0.45157771182591 0.11742931222279 0.061940930007894 0.10984423593012 0.041683699541449 -0.023713899288793 0.070857796468826 -0.072690524271287 -0.067647698021009 -0.085200840668325 -0.11193648011686 0.67426785600151 -0.1300191521617 0.34819391764541 -0.0083827241372588 0.066442112185895 -0.25356309781255 0.24958866524168 0.42892035959738 0.43712510944642 -0.15870201028593 0.39321155673112 0.36343137129104 0.31093384037317 0.59389140742283 0.36647806099943 1.3655796260827 0.36096719030608 -0.032677574637075 -0.064157452009019 -0.048687741224717 -0.14488484337567 -0.19978554763491 -0.12205209349659 -0.22519705346322 -0.19535837901098 0.39217757436407 0.49314464338947 -0.12029601989684 -0.19930873260649 -0.25256914664113 -0.33446040215201 0.4085965431249 0.84897456344137 0.36729212687931 0.39320571440803 0.39521204532771 0.37621089291883 0.48088783162216 0.4365357985347 0.50522042210476 1.6995599548503 -0.2049286249188 -0.24080127756918 -0.15154138843989 -0.20591777303058 0.47152633805862 0.49904382189978 0.44780044017114 0.43962187436318 0.41360546438327 0.39430426706481 0.38525865654255 0.40797417112132 0.42228838885869 0.4638042525226 0.40586782862867 0.36304044078161 -0.24329568196834 -0.29050620582732 -0.21565594059786 -0.22549585232915 -0.29172294239899 -0.43411728305527 -0.17936001669946 -0.30433157888429 0.48137521075921 0.3853428037184 0.45386535081666 0.37459524278558 0.47116852853563 0.33834110823453 0.47212651365909 0.60647376719524 -0.22605216710602 0.404171569573 0.45832080956468 0.95338468744961 0.54051793611945 0.50711155904669 -0.29258194830065 0.58283233847837 0.43114047060873 0.67362106891959 0.38257459947012 0.38385987224995 1.3542091339899 0.6054177798846 0.38700802991112 0.39372265046954 0.46663513505481 0.56729321749881 -0.18240926458384 -0.23915413519351 -0.21034739595545 -0.25307337656016 -0.0063339071300209 -0.28604609198656 0.43100174493165 0.47549412119608 0.38131806324053 0.44299536620014 0.32228928528909 0.36045890337654 0.45141815056354 0.38875629989204 0.41282307759092 0.36520826721398 0.39405002500814 0.39369763280205 0.38711908684881 0.42436710643966 0.40764632410962 0.40985009515241 0.4121363183707 -0.28250576984485 1.1449613824447 0.35173413066618 0.36891332986648 0.40107138499481 -0.26660884094049 0.85656966416726 -0.24456919369832 -0.22723620624747 -0.31607401454618 -0.20661370457577 -0.26428847505994 -0.29459645490567 -0.66653332800933 -0.1668985452219 -0.19947409794636 -0.038843701429598 -0.14940831020928 0.31199332278262 -0.1866932394283 0.41433429797651 0.37466736096721 -0.15914336507176 -0.25487409169307 -0.15317811020929 0.43562941479928 -0.067691851969962 0.29550793274371 0.37646498705227 0.44621253038881 0.44550218425057 0.21498096643484 0.17065874202459 0.27684534496037 0.28753644197454 0.46917081643208 1.5888826357862 0.48893677561987 0.85325603890246 0.78926255859779 0.76225268061123 -0.10777908377763 -0.22699946215158 0.38151893044265 0.43322522809975 0.74028677433437 0.39498985170105 0.43232825861721 0.41189132310399 0.42317456495615 0.37699697391342 0.48110393327273 0.40656621368042 1.2118847177687 0.3943805799071 0.49063694025475 0.21370018342807 1.0422824748983 1.1983388704967 1.649471858955 0.39139895953891 0.011284949028878 -0.14932131472857 -0.32094120050777 0.44220570307222 0.03086812548446 0.34267673653496 0.38739364313065 -0.16270140240341 -0.10797330485131 -0.12710076927156 -0.072505281495254 -0.027045112262998 0.04809073028002 0.32303704752604 0.0027477218815325 0.27591352689709 -0.045528524931253 -0.033008844255785 -0.04047766303024 0.41803643227164 0.43294339546325 0.41350177526302 0.39809158628736 0.38675247448372 0.43991475404001 0.68163923701944 0.55671894621145 0.43719021727465 0.42702633228987 0.40367271677665 0.042391881725086 0.4163605456545 0.428947080282 -0.59030145862271 -0.62445499699559 -0.60909854890263 -0.61999513189025 -0.62520771239326 -0.61416040593857 -0.61363502780765 -0.62907921975716 -0.63214337256749 -0.62660837805603 -0.58434230035394 -0.65502941665812 -0.6188948713475 -0.54695359979382 -0.59286100923162 -0.52437152037707 -0.61026088177495 -0.59382599213954 -0.62770418976724 -0.63478271491658 -0.64281427802987 -0.64639319664272 -0.63879728199512 -0.53427356483917 -0.63377294580731 -0.61324134872695 -0.61878067178283 -0.65510201634665 -0.62413124807138 -0.56555258163637 -0.5629675391967 -0.55769275802459 -0.48661899538667 -0.39432193688548 -0.3944730049