# vtk DataFile Version 3.0
d-2__ created by libgimli-v1.5.0-1-g5991b6ac
ASCII
DATASET UNSTRUCTURED_GRID
POINTS 943 double
280	0	0
280	-20	0
410	-20	0
410	0	0
346	0	0
345	-20	0
377.5	-20	0
378	0	0
313	0	0
312.5	-20	0
361.25	-20	0
362	0	0
354	-9.7140625	0
354	0	0
350	-4.85703125	0
354.94884407043	-4.85703125	0
350	0	0
352.47442203522	-6.8948373977099	0
347.96943984369	-9.8438510012456	0
350.97928211282	-9.52629157491	0
352.18853664714	-14.464119061757	0
353.125	-20	0
349.7650913612	-12.440626698926	0
344.70314588009	-14.021697366737	0
349.0625	-20	0
345.29611136155	-16.988775016314	0
328.75	-20	0
336.875	-20	0
340.9375	-20	0
341.53065395676	-16.19850494778	0
337.75	0	0
341.54124900302	-12.813738425583	0
344.29822987412	-10.339390356052	0
329.5	0	0
345.57650940872	-5.9626675910885	0
347.77139522749	-14.951303293733	0
347.20643117857	-3.0820579067636	0
341.875	0	0
336.25542051424	-14.489592490517	0
343.69819737466	-2.998440856036	0
339.8125	-3.307616584236	0
333.625	-4.8690435995248	0
339.89233255234	-8.2033514717584	0
336.46834505984	-3.0960451166096	0
333.625	0	0
336.70358728642	-6.6397267712853	0
342.29390411647	-5.9655043870591	0
332.52738826881	-10.339024318245	0
336.74915850552	-10.580054828518	0
351.09375	-17.496463588011	0
354.32612436441	-16.949667121692	0
357.1875	-20	0
356.12161616431	-13.243588542867	0
331.5625	-2.4345217997624	0
328.38907815342	-3.0320852460856	0
330.07246349379	-5.7877888013635	0
326.32432312985	-10.68075514216	0
327.4355708589	-7.6499299944934	0
321.25	0	0
329.4027414204	-10.090321555959	0
328.75315382484	-15.023870778507	0
330.76098420702	-12.778697217263	0
331.96080599802	-15.872058170243	0
333.69259562601	-13.041977076012	0
359.21875	-16.217270252409	0
360.18187642666	-8.4005251359695	0
332.8125	-20	0
357.31726619915	-10.12245700142	0
359.55365892304	-12.768761228254	0
357.3543502599	-6.9403977790777	0
360.61347802184	-4.0969259770663	0
364.91614085649	-15.030066688882	0
334.84375	-17.438353883062	0
337.90933722554	-17.093665227369	0
339.15870402923	-14.472898844023	0
370	0	0
358	0	0
369.375	-20	0
363.87197623405	-2.9166157960215	0
362.34867669104	-16.973297527039	0
365.3125	-20	0
363.41743512713	-11.095138306107	0
366	0	0
363.52008035431	-6.3643849316054	0
368.69329841381	-5.1505457572046	0
368	-2.2336258497906	0
371.13574405362	-3.0291690644172	0
373.31630388782	-8.0064975998782	0
374	0	0
376	-4.2032254303315	0
367.34375	-17.337233213081	0
372.62931625959	-15.4113586949	0
368.86752041285	-13.303163434754	0
366.82117364929	-8.8025004545764	0
373.21327903184	-5.0853184364461	0
370.97506104199	-6.6266627864699	0
370.48077438881	-10.141522776339	0
373.95083325282	-11.799664464458	0
377.48229419689	-15.13944243781	0
378.81301691769	-9.0366514264485	0
375.87605222007	-9.5279533942074	0
376.8321885337	-12.28989855428	0
376.94417937629	-6.8890104141432	0
393.75	-20	0
394	0	0
378.63228676176	-4.7867073447248	0
377.76588257618	-2.466038839279	0
375.45634629451	-1.8844717113956	0
386	0	0
373.20636137777	-2.1183134365006	0
382	0	0
380	-1.4340058452483	0
383.29953323558	-3.9241491740858	0
366.32747620326	-11.742517824922	0
381.28678962718	-12.772539817867	0
385.625	-20	0
383.49685254919	-8.6221481402085	0
381.5625	-20	0
381.33633026462	-6.3597483608505	0
387.97796930928	-13.671940118178	0
390.12710941032	-5.9905293551384	0
383.59375	-16.303523718079	0
384.79943838672	-11.979388213686	0
388.12187640515	-9.5708496149545	0
386.35264468473	-6.1490595707176	0
390	0	0
388	-2.9699430229073	0
396.09525891119	-6.8916051597887	0
392	-2.9541764189291	0
402	0	0
395.64134085355	-3.2652961422226	0
400.30497236759	-4.5230965024345	0
398	0	0
380.31227602442	-16.906655606318	0
386.92218485259	-16.880850143458	0
389.6875	-20	0
390.67638931924	-16.33790520334	0
392.51520992435	-11.778081604771	0
391.19093113181	-8.9380412942032	0
394.2049800076	-9.2613925627346	0
401.875	-20	0
393.10996338591	-6.4491528888102	0
397.45491603015	-9.914937334419	0
395.37108910548	-11.869970536415	0
399.12286891321	-7.3474237359085	0
410	-10	0
404.24293589027	-7.8308494504614	0
393.84212426504	-14.963859157518	0
399.54804127045	-14.234022790505	0
401.39405251143	-10.648408659542	0
406	0	0
410	-15	0
410	-5	0
404	-3.3286523025068	0
407.30980350341	-3.052157197272	0
407.04196221796	-6.2537348945178	0
406.95171790904	-9.3659521635513	0
404.35404354162	-10.792249841184	0
402.73381005638	-13.606172713286	0
407.88991320958	-12.5	0
401.69291695697	-16.720952122894	0
405.9375	-20	0
397.8125	-20	0
410	-17.5	0
408	-20	0
406.96875	-17.125	0
395.78125	-17.518243887467	0
398.74334061309	-17.165992684726	0
405.61165195808	-14.450471974626	0
352.47442203522	-2.8192251022901	0
322.01979723879	-7.3833755739882	0
325.375	0	0
324.86572702938	-4.7119364678726	0
321.26722728784	-3.7300215237758	0
317.125	0	0
315.78509188961	-6.7634994974586	0
318.99908438477	-6.1014355033349	0
318.153771217	-3.02254275374	0
318.45375616568	-11.586339491923	0
315.0625	-2.388355990559	0
296.5	0	0
313.27765413741	-4.9303811834321	0
311.05183426557	-9.6490485988461	0
357.60127611562	-3.1363981425711	0
373.4375	-20	0
375.17088195949	-17.329212441486	0
320.625	-20	0
322.41166152244	-11.330157361735	0
320.69400763599	-15.495204039383	0
324.9177969443	-14.318040281052	0
315.55158429239	-15.846034079541	0
318.03756189901	-14.421268672408	0
315.32846179404	-12.57553209086	0
316.5625	-20	0
296.25	-20	0
318.34364065115	-17.486573222295	0
314.2478080686	-9.5666749159599	0
312.70565407433	-16.953217893359	0
304.375	-20	0
308.4375	-20	0
306.40625	-13.981342067687	0
306.40625	-17.333436531476	0
309.55005239834	-17.045582901287	0
301.44006909308	-15.657389299581	0
311.02526068543	-13.494380121446	0
304.75	0	0
300.3125	-20	0
301.44622874028	-7.4801414399774	0
307.49736318711	-5.0880870804382	0
302.82645902015	-11.569807370993	0
306.71685520829	-9.6574966494033	0
296.09246913784	-11.564734881742	0
304.74249159025	-6.9688878415196	0
304.38279541798	-3.4840523325441	0
300.625	0	0
299.45860598765	-12.706431440545	0
298.69492624311	-9.4248908213864	0
296.54099559631	-15.775462053474	0
297.45102614537	-4.7465485497199	0
295.21534395457	-7.8455206611583	0
288.25	0	0
280	-10	0
291.34639613205	-3.4118381916879	0
292.96180672888	-10.340022242594	0
291.7226972001	-6.9554328735903	0
288.125	-20	0
287.95112125747	-4.4938614305857	0
299.02988565513	-17.34927283027	0
293.33992287124	-13.987188073813	0
292.1875	-20	0
293.66404396272	-17.16615286773	0
289.56193074221	-15.978390608049	0
290.13012529217	-12.476777199911	0
280	-15	0
284.125	0	0
287.81715765907	-8.8192745504114	0
284.0625	-20	0
282.03125	-17.5	0
285.75782736938	-16.547351199883	0
283.2356497568	-14.446229885102	0
286.55760681053	-13.022932550751	0
283.62363409573	-10.763429709451	0
280	-4	0
282.52427904618	-7	0
283.57186685251	-3.5565345666521	0
285.62546946327	-6.5866140804878	0
310.4273683649	-6.4701857059949	0
308.875	0	0
310.22764497408	-3.096784690421	0
300.89563907137	-3.9985075463571	0
292.375	0	0
294.24361534646	-4.7885625777532	0
324.6875	-20	0
326.36592989081	-17.222381894499	0
323.36322665556	-16.906361516118	0
314.63407703717	-18.476608946679	0
312.60282703717	-18.476608946679	0
314.53125	-20	0
377.31614338088	-4.4949663875281	0
376.47208968814	-5.5461179222374	0
377.78823306903	-5.837858879434	0
343.41338265916	-16.593639982047	0
344.99962862082	-15.505236191526	0
343.11689991843	-15.110101157259	0
362.06677918807	-5.2306554543358	0
363.69602829418	-4.6405003638135	0
362.24272712795	-3.5067708865439	0
376.41011579818	-8.2084819041753	0
375.13024163205	-7.4477540070107	0
374.59617805395	-8.7672254970428	0
351.23721101761	-1.409612551145	0
350	-2.428515625	0
351.23721101761	-3.838128176145	0
312.33758821675	-8.0184303109774	0
313.762731103	-7.248528049696	0
311.85251125115	-5.7002834447135	0
348.76824329434	-13.69596499633	0
348.86726560245	-11.142238850086	0
347.87041753559	-12.397577147489	0
352.47442203522	-4.85703125	0
353.71163305283	-5.875934323855	0
353.71163305283	-3.838128176145	0
348.41694761374	-17.475651646867	0
350.078125	-18.748231794005	0
349.43257261374	-16.223883440872	0
362.93598811703	-1.4583078980108	0
361.30673901092	-2.0484629885331	0
355.65863309958	-9.91825975071	0
357.33580822953	-8.5314273902489	0
355.67717512995	-8.3272301395388	0
350.37218673701	-10.983459136918	0
349.47436097825	-9.6850712880778	0
348.98471992185	-7.3504411256228	0
350.48964105641	-7.191661412455	0
351.72685207402	-8.21056448631	0
352.48964105641	-9.620177037455	0
353.23721101761	-8.304449948855	0
355.06080808216	-11.478825521434	0
356.71944118173	-11.683022772144	0
357.47781318776	-5.0383979608244	0
356.27506009303	-3.9967146962855	0
356.15159716517	-5.8987145145388	0
348.60321558928	-1.5410289533818	0
348	0	0
346.60321558928	-1.5410289533818	0
354.47442203522	-2.428515625	0
353.23721101761	-1.409612551145	0
354.91438614756	-6.9176175883938	0
346.13383485891	-10.091620678649	0
346.7729746262	-7.9032592961671	0
344.93736964142	-8.1510289735701	0
332.38665299901	-17.936029085122	0
333.828125	-18.719176941531	0
333.40227799901	-16.655206026652	0
351.23721101761	-5.875934323855	0
346.33629286189	-11.932774183991	0
346.23727055379	-14.486500330235	0
353.25733050577	-15.706893091725	0
355.22387026436	-15.09662783228	0
354.15507640573	-13.853853802312	0
350.97681400417	-13.452372880342	0
351.58390937998	-11.995205318334	0
351.64114332357	-15.980291324884	0
352.7099371822	-17.223065354852	0
353.09426832357	-12.089090780879	0
344.63735339169	-4.4805542235623	0
346.39147029364	-4.522362748926	0
345.45231427661	-3.0402493813998	0
346.53375329452	-15.970039155023	0
328.41915613965	-8.8701257752262	0
329.73760245709	-7.9390551786612	0
328.75401717635	-6.7188593979285	0
345.14805568077	-18.494387508157	0
347.03125	-20	0
347.17930568077	-18.494387508157	0
351.09375	-20	0
352.109375	-18.748231794005	0
343.26532697838	-18.09925247389	0
343.12219744155	-13.41771789616	0
341.53595147989	-14.506121686682	0
341.23407697838	-18.09925247389	0
339.71999559115	-16.646085087575	0
339.42341861277	-18.546832613685	0
342.96875	-20	0
[...]
CELL_DATA 1736
SCALARS Marker double 1
LOOKUP_TABLE default
0 0 0 0 1 1 1 1 2 2 2 2 3 3 3 3 4 4 4 4 5 5 5 5 6 6 6 6 7 7 7 7 8 8 8 8 9 9 9 9 10 10 10 10 11 11 11 11 12 12 12 12 13 13 13 13 14 14 14 14 15 15 15 15 16 16 16 16 17 17 17 17 18 18 18 18 19 19 19 19 20 20 20 20 21 21 21 21 22 22 22 22 23 23 23 23 24 24 24 24 25 25 25 25 26 26 26 26 27 27 27 27 28 28 28 28 29 29 29 29 30 30 30 30 31 31 31 31 32 32 32 32 33 33 33 33 34 34 34 34 35 35 35 35 36 36 36 36 37 37 37 37 38 38 38 38 39 39 39 39 40 40 40 40 41 41 41 41 42 42 42 42 43 43 43 43 44 44 44 44 45 45 45 45 46 46 46 46 47 47 47 47 48 48 48 48 49 49 49 49 50 50 50 50 51 51 51 51 52 52 52 52 53 53 53 53 54 54 54 54 55 55 55 55 56 56 56 56 57 57 57 57 58 58 58 58 59 59 59 59 60 60 60 60 61 61 61 61 62 62 62 62 63 63 63 63 64 64 64 64 65 65 65 65 66 66 66 66 67 67 67 67 68 68 68 68 69 69 69 69 70 70 70 70 71 71 71 71 72 72 72 72 73 73 73 73 74 74 74 74 75 75 75 75 76 76 76 76 77 77 77 77 78 78 78 78 79 79 79 79 80 80 80 80 81 81 81 81 82 82 82 82 83 83 83 83 84 84 84 84 85 85 85 85 86 86 86 86 87 87 87 87 88 88 88 88 89 89 89 89 90 90 90 90 91 91 91 91 92 92 92 92 93 93 93 93 94 94 94 94 95 95 95 95 96 96 96 96 97 97 97 97 98 98 98 98 99 99 99 99 100 100 100 100 101 101 101 101 102 102 102 102 103 103 103 103 104 104 104 104 105 105 105 105 106 106 106 106 107 107 107 107 108 108 108 108 109 109 109 109 110 110 110 110 111 111 111 111 112 112 112 112 113 113 113 113 114 114 114 114 115 115 115 115 116 116 116 116 117 117 117 117 118 118 118 118 119 119 119 119 120 120 120 120 121 121 121 121 122 122 122 122 123 123 123 123 124 124 124 124 125 125 125 125 126 126 126 126 127 127 127 127 128 128 128 128 129 129 129 129 130 130 130 130 131 131 131 131 132 132 132 132 133 133 133 133 134 134 134 134 135 135 135 135 136 136 136 136 137 137 137 137 138 138 138 138 139 139 139 139 140 140 140 140 141 141 141 141 142 142 142 142 143 143 143 143 144 144 144 144 145 145 145 145 146 146 146 146 147 147 147 147 148 148 148 148 149 149 149 149 150 150 150 150 151 151 151 151 152 152 152 152 153 153 153 153 154 154 154 154 155 155 155 155 156 156 156 156 157 157 157 157 158 158 158 158 159 159 159 159 160 160 160 160 161 161 161 161 162 162 162 162 163 163 163 163 164 164 164 164 165 165 165 165 166 166 166 166 167 167 167 167 168 168 168 168 169 169 169 169 170 170 170 170 171 171 171 171 172 172 172 172 173 173 173 173 174 174 174 174 175 175 175 175 176 176 176 176 177 177 177 177 178 178 178 178 179 179 179 179 180 180 180 180 181 181 181 181 182 182 182 182 183 183 183 183 184 184 184 184 185 185 185 185 186 186 186 186 187 187 187 187 188 188 188 188 189 189 189 189 190 190 190 190 191 191 191 191 192 192 192 192 193 193 193 193 194 194 194 194 195 195 195 195 196 196 196 196 197 197 197 197 198 198 198 198 199 199 199 199 200 200 200 200 201 201 201 201 202 202 202 202 203 203 203 203 204 204 204 204 205 205 205 205 206 206 206 206 207 207 207 207 208 208 208 208 209 209 209 209 210 210 210 210 211 211 211 211 212 212 212 212 213 213 213 213 214 214 214 214 215 215 215 215 216 216 216 216 217 217 217 217 218 218 218 218 219 219 219 219 220 220 220 220 221 221 221 221 222 222 222 222 223 223 223 223 224 224 224 224 225 225 225 225 226 226 226 226 227 227 227 227 228 228 228 228 229 229 229 229 230 230 230 230 231 231 231 231 232 232 232 232 233 233 233 233 234 234 234 234 235 235 235 235 236 236 236 236 237 237 237 237 238 238 238 238 239 239 239 239 240 240 240 240 241 241 241 241 242 242 242 242 243 243 243 243 244 244 244 244 245 245 245 245 246 246 246 246 247 247 247 247 248 248 248 248 249 249 249 249 250 250 250 250 251 251 251 251 252 252 252 252 253 253 253 253 254 254 254 254 255 255 255 255 256 256 256 256 257 257 257 257 258 258 258 258 259 259 259 259 260 260 260 260 261 261 261 261 262 262 262 262 263 263 263 263 264 264 264 264 265 265 265 265 266 266 266 266 267 267 267 267 268 268 268 268 269 269 269 269 270 270 270 270 271 271 271 271 272 272 272 272 273 273 273 273 274 274 274 274 275 275 275 275 276 276 276 276 277 277 277 277 278 278 278 278 279 279 279 279 280 280 280 280 281 281 281 281 282 282 282 282 283 283 283 283 284 284 284 284 285 285 285 285 286 286 286 286 287 287 287 287 288 288 288 288 289 289 289 289 290 290 290 290 291 291 291 291 292 292 292 292 293 293 293 293 294 294 294 294 295 295 295 295 296 296 296 296 297 297 297 297 298 298 298 298 299 299 299 299 300 300 300 300 301 301 301 301 302 302 302 302 303 303 303 303 304 304 304 304 305 305 305 305 306 306 306 306 307 307 307 307 308 308 308 308 309 309 309 309 310 310 310 310 311 311 311 311 312 312 312 312 313 313 313 313 314 314 314 314 315 315 315 315 316 316 316 316 317 317 317 317 318 318 318 318 319 319 319 319 320 320 320 320 321 321 321 321 322 322 322 322 323 323 323 323 324 324 324 324 325 325 325 325 326 326 326 326 327 327 327 327 328 328 328 328 329 329 329 329 330 330 330 330 331 331 331 331 332 332 332 332 333 333 333 333 334 334 334 334 335 335 335 335 336 336 336 336 337 337 337 337 338 338 338 338 339 339 339 339 340 340 340 340 341 341 341 341 342 342 342 342 343 343 343 343 344 344 344 344 345 345 345 345 346 346 346 346 347 347 347 347 348 348 348 348 349 349 349 349 350 350 350 350 351 351 351 351 352 352 352 352 353 353 353 353 354 354 354 354 355 355 355 355 356 356 356 356 357 357 357 357 358 358 358 358 359 359 359 359 360 360 360 360 361 361 361 361 362 362 362 362 363 363 363 363 364 364 364 364 365 365 365 365 366 366 366 366 367 367 367 367 368 368 368 368 369 369 369 369 370 370 370 370 371 371 371 371 372 372 372 372 373 373 373 373 374 374 374 374 375 375 375 375 376 376 376 376 377 377 377 377 378 378 378 378 379 379 379 379 380 380 380 380 381 381 381 381 382 382 382 382 383 383 383 383 384 384 384 384 385 385 385 385 386 386 386 386 387 387 387 387 388 388 388 388 389 389 389 389 390 390 390 390 391 391 391 391 392 392 392 392 393 393 393 393 394 394 394 394 395 395 395 395 396 396 396 396 397 397 397 397 398 398 398 398 399 399 399 399 400 400 400 400 401 401 401 401 402 402 402 402 403 403 403 403 404 404 404 404 405 405 405 405 406 406 406 406 407 407 407 407 408 408 408 408 409 409 409 409 410 410 410 410 411 411 411 411 412 412 412 412 413 413 413 413 414 414 414 414 415 415 415 415 416 416 416 416 417 417 417 417 418 418 418 418 419 419 419 419 420 420 420 420 421 421 421 421 422 422 422 422 423 423 423 423 424 424 424 424 425 425 425 425 426 426 426 426 427 427 427 427 428 428 428 428 429 429 429 429 430 430 430 430 431 431 431 431 432 432 432 432 433 433 433 433 
POINT_DATA 943
SCALARS ab-pot double 1
LOOKUP_TABLE default
0.40713148390648 0.4014399850914 -0.5157104199587 -0.8389609582298 0.47407506559477 0.46793903635953 0.49741586749212 0.54377984781518 0.43444852215585 0.44259550197867 0.49073800564598 0.5016797685545 0.48646123903132 0.48682265207767 0.47986229468935 0.48833963950684 0.48015471147806 0.48399976267257 0.4764664817451 0.481344835252 0.48156102807181 0.47916691146206 0.47868356213858 0.47041963547193 0.47323119664162 0.46996596077918 0.44777761675105 0.45828937649112 0.4632092945538 0.46581728131871 0.46258755708664 0.46711283175537 0.47065730174095 0.45226822641533 0.4731120482275 0.47438018695838 0.47600624013306 0.46814532642302 0.45954900159806 0.47062674893905 0.46509497208532 0.4571980537027 0.46551512365309 0.4605693868582 0.45724187980983 0.46062940902381 0.46867170464762 0.4554217304094 0.46097038646184 0.47779354188565 0.48305412839729 0.48504326821233 0.48863734720711 0.45494604319145 0.45082719134256 0.45287233350208 0.44823002029574 0.44965485360214 0.44307279093259 0.45175575124317 0.4497309792351 0.45283030355093 0.45324132593317 0.45637895995265 0.49155906396872 0.496808273857 0.45285389723727 0.49176629196494 0.49484372732997 0.49231213928918 0.49779057138544 0.50255783214917 0.45653035844323 0.46082480393506 0.46361710304898 0.51977603658155 0.49400831772368 0.49956793927059 0.50556810081361 0.49589270681069 0.49563397982976 0.50300698887645 0.50998276552674 0.50469282292421 0.51481805153745 0.51476832212016 0.52148687685171 0.52701339895779 0.53091656527733 0.53486019397282 0.50285042569831 0.51636064038151 0.51223107078328 0.51032236493479 0.52740214408212 0.5204924155115 0.51863554445002 0.52610004316363 0.52647793505377 0.53964404479242 0.53201986061675 0.53132815657536 0.53611466863721 -0.57902720065615 0.67863642030592 0.54208931939564 0.54026142666144 0.53439312975052 0.58348124109676 0.52775537405873 0.55956751985194 0.54949647277769 0.5597664023799 0.50810416871825 0.54255385745198 -0.55450446665185 0.55886720487419 0.42674917733708 0.55172366543181 0.56565964486969 0.58269183222803 0.53265389896589 0.55831951526808 0.57432572712799 0.56808316666029 0.62308485213002 0.58506017427772 0.60338875926593 0.62059441833299 0.83118660201024 0.65657411750433 0.66642522876082 0.74632705701234 0.52026806388883 0.51340509557486 -0.61012931267054 0.54890583315369 0.58383140110438 0.58339718772688 0.5910383750767 -0.36599583622178 0.59270299734106 0.59733339471936 0.58810366914252 0.61504889776395 -0.6057796957578 0.59172499178968 0.57138180810829 0.57290850002087 0.59137670022811 -1 -0.54968655905476 -0.68347090807221 0.81109421660376 -0.80895071676939 -0.65485611039667 -0.58427492964311 0.54224217180672 0.54560369931438 -0.55399836629442 0.51288151175034 -0.46772606886437 -0.52282229325568 -0.53240403418179 -0.49728156802151 -0.49802831755392 0.50712398739266 0.52315690683444 -0.43867025827226 0.48419614047319 0.44375901175847 0.44759208883847 0.44666185875992 0.44310711665991 0.43876582660714 0.43735192441694 0.44040263512996 0.43989996264178 0.4398290772293 0.43654639161896 0.41848950328133 0.43468963099269 0.43263036426298 0.49288233374419 0.50174500321937 0.51345521105953 0.44197561188422 0.44381413592696 0.4423417465461 0.44588166804573 0.43845882989123 0.44004236142665 0.43714762650104 0.44120092211186 0.41459747948667 0.441057765416 0.43589777135241 0.43713539649511 0.44231723536107 0.44529963438138 0.42867968992997 0.43249882522155 0.43438023820496 0.42317619350335 0.43328654431697 0.42614098315811 0.42695641035672 0.42336837970995 0.42899879374646 0.42453864324539 0.42806283853072 0.41695199778853 0.42582786228217 0.42590211606383 0.42217548704822 0.42045386561547 0.41987656421512 0.4162452268652 0.41897948872861 0.41660274803139 0.41151050888538 0.39854504317703 0.414018412619 0.41537571231327 0.41518968321741 0.40761636299417 0.41234355106486 0.41924895360846 0.41455200326073 0.41054148493382 0.41302075830172 0.41037788746654 0.41309652341788 0.40166896034909 0.40814022501736 0.41293080296701 0.40471474496977 0.40346499412489 0.40691512044746 0.40471851276043 0.40903758108404 0.40373409703763 0.39454541658283 0.3985866338808 0.4056284345901 0.40639207611697 0.43172159761301 0.43026826925116 0.43161857996851 0.42257394019677 0.41484451737342 0.41634709938843 0.44405705790255 0.44654213429984 0.4441586974333 0.43999610752502 0.43973370279193 0.44233476914835 0.53806237927687 0.53555118797211 0.53950960680797 0.46783246799989 0.47027368920615 0.46808321135689 0.5004293096561 0.50550528611076 0.50191489457235 0.53400234858618 0.53127157240086 0.5296133731303 0.48231791180344 0.48005627380096 0.48246212790171 0.43367572636812 0.43527605583346 0.43342002399135 0.47644704664662 0.47773369198427 0.47557865525519 0.48394590400684 0.48647881864242 0.48580398271038 0.47387352059287 0.4755070627728 0.47615848590623 0.50358584836588 0.50010731645253 0.48910967939549 0.49203184367932 0.48925651658526 0.47997427574549 0.47888657174466 0.47851404019909 0.48060759286941 0.48272826567448 0.48387443155944 0.48535678080565 0.48779988368847 0.49018935322558 0.49253592667013 0.49096961610342 0.49001459951795 0.47796181591074 0.47709268977592 0.4750452308035 0.48750973600368 0.48553042823439 0.48810448161736 0.47342071941416 0.47471582753964 0.47191838859246 0.45305868132499 0.45471737913426 0.45486012061268 0.48148079532568 0.4731297148695 0.47239043631409 0.48235855189985 0.48574403466228 0.48487370851913 0.48027064865632 0.48177827704373 0.47963920728765 0.48044119178921 0.48386908421946 0.47142988158257 0.47510454380217 0.47322704489058 0.47210443837878 0.45075780810467 0.45232074248841 0.45150098104685 0.46898046411024 0.47051084171482 0.47160441051988 0.47625125346818 0.47847813089777 0.46689623745106 0.46876009765468 0.46651173898975 0.46450816335815 0.4633166378052 0.46206687820029 0.46551090644433 0.46871881645438 0.47063705869259 0.44996330823864 0.45065717595795 0.45235799536622 0.46516659007048 0.46729085594407 0.46632932468524 0.4626279010405 0.46530718686578 0.46438623796045 0.46301737093796 0.46403116179536 0.46155408235707 0.47681200115384 0.47230825933598 0.47108114155328 0.46951103376359 0.45633124407575 0.45796732991844 0.45482880088013 0.47761073251101 0.4707725241561 0.46994937351647 0.47792504401006 0.46655468797953 0.46531326627432 0.45595748880814 0.45856210325573 0.45811097469745 0.46823217662714 0.46647020471152 0.46783414778119 0.4590909911267 0.4591665244544 0.4568538495419 0.4696753607779 0.45595727069717 0.45399753828948 0.45522395837738 0.46306983122634 0.46358676329608 0.46033083672831 0.46296205686402 0.45607263897104 0.45479702077366 0.45352557604054 0.45863901100083 0.45812946905106 0.45647169645788 0.45990983574228 0.46035417054316 0.46158360516844 0.45283555473538 0.45160104152745 0.45356470132818 0.45401785164618 0.46087856978526 0.48106348115394 0.48816644329374 0.48801929046309 0.49132320885751 0.48725738840867 0.48411526232326 0.48218350956611 0.49026459697472 0.44195173912494 0.44338048873785 0.44202809419064 0.44476366811575 0.44547747876262 0.45141755706741 0.45052929364127 0.45408848652562 0.44662647350086 0.44781390459292 0.44598371375212 0.44497092340633 0.44693699365398 0.44530951558159 0.44723642388895 0.448916655768 0.44610345871187 0.44911783638712 0.44910681260487 0.45125774902886 0.4437973797457 0.45058251585008 0.45031232949406 0.45147216797136 0.44883511514276 0.49166143843876 0.49317243960217 0.45743223194158 0.45563006850398 0.45457434779186 0.45306364529591 0.49381925688227 0.49319885517595 0.49569067373007 0.49532243754257 0.49351679651907 0.49923948551883 0.49906052492904 0.49605931721221 0.45867908218371 0.46023689934782 0.45804873006467 0.49414680429617 0.49449959307438 0.5014773453567 0.50704932087548 0.5088959468778 0.49594457613678 0.49724195984059 0.49579254357522 0.48990545696633 0.5173100883359 0.51482353442208 0.51229593908344 0.49900478780768 0.50290638461176 0.45953452979512 0.46077729726886 0.46474537678496 0.46219983418726 0.49861037885334 0.50029151792357 0.50079164461235 0.4977757077564 0.49644542757668 0.49904928467645 0.50301713687464 0.52358172614943 0.52116944942182 0.52445216640314 0.49771448110213 0.50521847065067 0.50688275769004 0.51024783967776 0.49324898542471 0.50973741097597 0.50948921790584 0.51531026520956 0.50956626899277 0.50578489816189 0.50768532676642 0.50401827606123 0.5064345648385 0.50749127464324 0.51827675767592 0.52052202627744 0.51910776873364 0.51267309146089 0.52470987660507 0.52388487935657 0.53768157633583 0.54188420059462 0.53856407114888 0.53093583601397 0.52749562898929 0.53103442101755 0.52674940079794 0.52883357308642 0.53467021212807 0.53099327000571 0.53192268016933 0.52873681815454 0.51314247355113 0.51954125558204 0.50703144575343 0.51463013373248 0.5074693317697 0.52252918923961 0.52257807734012 0.51862389886934 0.51541444034916 0.52378037567115 0.52733658498844 0.50551200054398 0.5092967334624 0.52113407571806 0.51730712219565 0.53131016165619 0.51525218610891 0.51300774813645 0.5144593619003 0.51966377805562 0.52122192176627 0.51556082701512 0.52706195902577 0.62226586156978 0.63715605966462 0.60515702418257 0.53647268414574 0.53278018863007 0.53373461012136 0.53657586854858 0.52914719828249 0.5634808667588 0.5628359976968 0.55960287638894 0.53560162519969 0.5378945467509 0.55032117227071 0.54992679228742 0.55892992120565 0.53533693245311 0.56936608788833 0.56211941451133 0.56967471955957 -0.50955795741578 -0.3215239110919 0.49022464891937 0.60016934039948 0.58772905619424 0.54040415192143 0.53799736306426 0.5453614899408 0.54697727038174 0.54128348701751 0.58388232155955 0.6009453706675 0.52923482137223 0.55380844993139 0.55485833281649 0.52498819586674 0.55527285076391 0.54562712932069 0.54881509532304 0.54675883931989 0.55019960165014 0.5515872693046 0.5417530580277 0.53292296716045 0.52420309571346 0.55647993079963 0.52488813491902 0.53986264041742 0.57052517288456 0.57604106656838 0.54647041616671 0.47952003839209 0.49482577855508 0.50618092758665 0.54671710482888 0.54800297472718 0.52345941778607 0.58643284650516 0.5858429902159 0.58982723078527 0.56610185713286 0.5657670624263 0.57430493480952 0.55912339620447 0.56949633497788 -0.49852976893575 0.54665999113774 0.56227202066109 0.57013135656447 0.52666741739015 0.57822828653642 0.57589584177212 0.57135228818611 0.63337005627766 0.60295966582965 0.59052052693087 0.78171169454804 0.75493828415869 0.77629161069172 0.59899700188935 0.57875862247134 0.58279208448491 0.63903562648331 0.61193693260144 0.63675556909857 0.64510504163191 0.64968187662109 0.66086679629636 0.62929636346276 0.6306974355138 0.68816102044032 0.59657721369104 0.59481209795091 0.6002867304157 0.70596893103829 0.70804864886268 -0.55364759736697 0.69262922548818 -0.56815984651393 -0.54244048178037 -0.61233959980052 -0.50835940670394 -0.54996871622575 0.59163266789858 -0.59712161715562 0.57996072581765 0.44312061502035 0.55931974712935 0.58764603292859 0.58728826640293 0.59183097585861 0.58372229060369 0.57850174144812 0.57935775673382 0.5995324966573 0.60321167607663 0.60371868163585 0.59680064492794 0.57484181042194 0.58357795053675 0.5463049226684 0.57640677446119 0.56940886931856 0.60985844990087 0.97652003850006 0.84076500792915 -0.78213662525766 -0.47979567956674 -0.49510665038469 0.56563660090731 0.58633616406437 0.74839986700341 0.54874566481071 -0.52190301396595 0.45963386397567 0.5225519798735 0.46219141469684 0.59380265000447 0.54698609400624 0.53016059172332 0.56351383569378 0.57984966900898 0.41383329077038 -0.48383474601783 0.49085614571387 -0.6336592179486 -0.64668124945187 -0.67828652583101 -0.56735127369363 -0.58342808719512 -0.60379091245729 -0.62493472086764 -0.75901368443948 -0.77185911982986 -0.7998741344481 -0.86147594496437 -0.83284806465912 -0.76552079860883 0.65227260345692 -0.55257362417371 -0.57309748480072 -0.48145080685552 0.37021533864533 -0.50641547203139 -0.40213038860831 0.45829301994115 0.49748181272411 0.55198583085068 -0.50726683809336 -0.52418863963854 -0.51563273583449 -0.49953833261398 -0.51954102844094 -0.48357389181954 -0.5277624771621 -0.52908983253408 0.55031381038967 0.51772439151293 -0.54067727659416 -0.51459084664943 -0.5618966760974 -0.44999574989429 0.37227297982096 -0.48063600151333 0.48353304505222 0.4415710180164 0.4418243860223 0.44927875432904 0.4499110690644 0.44531490909208 0.44317999920758 0.43938960245124 0.43756425000376 0.43819256088575 0.43899276669166 0.44008702131652 0.43899192384171 0.43663632385486 0.435815097862 0.43572752284505 0.44086013609919 0.44132078577731 0.43999775641707 0.44136360072066 0.43857650286579 0.43657528123965 0.43557986044165 0.43669672023508 0.44810922826418 0.44782054313055 0.44630230476473 0.4342861675551 0.43420258083191 0.43295206143229 0.41568807599992 0.41616816245591 0.41496159202802 0.43211742247742 0.43290945279965 0.4316541363603 0.42381636562583 0.42599121337557 0.4267594901528 0.43100117834924 0.42966270928913 0.43052148416237 0.43652029292891 0.43511827340488 0.49337650310946 0.49031301487629 0.50953082147485 0.50706292443612 0.50098726079835 0.50090365219961 0.4412964041053 0.44287395446858 0.44097009290244 0.43994630580967 0.44016527666073 0.4412935993703 0.43991185133885 0.44714819329242 0.44395036340664 0.44272061572874 0.44421189604893 0.4429234814857 0.43914022280237 0.43869499274213 0.43776766898499 0.44235680456065 0.44154884866906 0.44172937981645 0.43851861168868 0.43770443