# vtk DataFile Version 3.0
d-2__ created by libgimli-v1.5.0-1-g5991b6ac
ASCII
DATASET UNSTRUCTURED_GRID
POINTS 3477 double
280	0	0
280	-4	0
280	-11	0
280	-30	0
410	-30	0
410	-11	0
410	-4	0
410	0	0
346	0	0
346	-4	0
346	-11	0
345	-30	0
312	-4	0
313	0	0
313	-11	0
312.5	-30	0
378	-4	0
378	0	0
378	-11	0
377.5	-30	0
296	-4	0
296.5	-11	0
296.5	0	0
329	-4	0
329.5	-11	0
329.5	0	0
394	0	0
394	-4	0
394	-11	0
362	-4	0
362	0	0
362	-11	0
288	-4	0
288.25	0	0
337.5	-4	0
337.75	0	0
386	0	0
386	-4	0
402	-4	0
402	0	0
370	-4	0
370	0	0
354	0	0
354	-4	0
284	-4	0
284.125	0	0
341.75	-4	0
341.875	0	0
390	-4	0
390	0	0
382	-4	0
382	0	0
406	0	0
406	-4	0
398	0	0
398	-4	0
366	0	0
366	-4	0
374	0	0
374	-4	0
350	-4	0
350	0	0
358	-4	0
358	0	0
282.0625	0	0
280	-2	0
282	-4	0
283	-3	0
284.97159090909	-2.0284090909091	0
283.49062170937	-1.5093782906283	0
284.1508533696	-2.8491466303966	0
286	-4	0
285	-4	0
287	-2.3890553450488	0
285.95824535226	-2.3636842722188	0
286.1875	0	0
285.81795671676	-1.1571177390501	0
287.21875	-0.96691401677734	0
285.15625	0	0
284.640625	-0.97566924497072	0
292.375	0	0
288.35877353748	-1.149401425994	0
288.07693735489	-2.2049800158452	0
290.3125	0	0
289.28125	0	0
292	-4	0
289.796875	-1.3587029924077	0
281.5	-2.5	0
291.34375	-1.1685480721124	0
283.09375	0	0
282.578125	-0.94244231080896	0
281.15459615978	-1.10900288595	0
282.53952127777	-2.0223862836925	0
280	-3	0
281	-4	0
280	-8	0
280	-6	0
281.5	-5.5	0
280	-5	0
291.34375	0	0
290.52020553094	-0.85601463453773	0
290.63546326846	-1.7936149472616	0
290	-4	0
291.91371428857	-2.5282225694707	0
289.63345865971	-2.6997292980106	0
291	-4	0
289.01674735294	-1.9441073338259	0
289	-4	0
288.5	-3.1222719599166	0
287.5	-4.8799148345233	0
287.55093310586	-3.1629107540259	0
287	-4	0
288	-11	0
286.5	-3.1945276725244	0
288.5	-5.035639322046	0
289.5	-5.6035731257308	0
286.5	-4.8661350259198	0
287.75028439679	-6.5613502040155	0
285	-5.1546640092294	0
286.98701122924	-5.8156193546757	0
285.89707835736	-5.7750281989402	0
286.39010259709	-7.1900489592529	0
284.4537398359	-6.903376849626	0
281.03125	0	0
280	-1	0
281.16666666667	-7	0
283	-5.1666666666667	0
294	-4	0
292.75622548937	-1.3757494483488	0
291	-5.1915411614997	0
285.59650691142	-3.1916055248029	0
287.9487898774	-8.7765317306151	0
285.47073779462	-6.7169751976918	0
281.98775604211	-7.1303781948258	0
280.88333333333	-6.15	0
281.73333333333	-6.3388888888889	0
280	-7	0
283.55326638526	-6.7556542114509	0
282.3357973358	-5.7194213444214	0
282.18041055733	-4.8572671413396	0
282.64979998836	-6.6275024155399	0
283	-4	0
284	-11	0
283.10079661218	-5.9632240772617	0
284.00170378656	-5.4445668928992	0
281.36814038499	-8.3818659536997	0
282.95596770951	-7.7178106526612	0
283.87365576477	-7.6210264930787	0
283.57001221445	-9.1409984760911	0
285.19837919986	-8.0985459850761	0
284.30606204741	-8.497723242186	0
284.82187735798	-9.8306705088701	0
293	-4	0
294.74426330214	-2.0403819609601	0
294.05831069321	-2.9010017212849	0
295	-4	0
294.4375	0	0
295.5	-2.9382520643005	0
294.5	-5.6035731257308	0
304	-4	0
304.75	0	0
296.23797018586	-1.5501164239389	0
295.5	-5.035639322046	0
293.29567120568	-2.2336441879969	0
300	-4	0
295.91072338478	-6.9231793496193	0
293.90212819277	-1.2537533954008	0
298	-4	0
295.41109073005	-6.043441867027	0
296.57263171322	-4.9149809582553	0
294.96068827896	-0.96459202670742	0
292.25	-11	0
297.70841578871	-7.44126490824	0
296.52375436564	-5.9932704545623	0
295.46875	0	0
297	-2.8804740753294	0
297.96639391597	-5.5184107591784	0
297	-4	0
293.40625	0	0
290.5	-3.1572532590612	0
290.11785532304	-4.916485205896	0
290.34451901437	-5.7416530727071	0
289.70083821501	-7.0268610948236	0
291.55440418414	-6.5177088100951	0
287.45325680309	-7.7044521961744	0
286.42561472625	-8.4725037750761	0
288.70139077734	-7.7781054187283	0
286	-11	0
294.25018367263	-7.2845081061901	0
285.56811203934	-9.0858939343789	0
285.77953511518	-10.04396703826	0
285	-11	0
287	-11	0
286.43824701161	-9.3962411106609	0
288.86291019366	-16.603880772883	0
285.5	-12.035639322046	0
287.20012201891	-16.67160100992	0
287	-12.121311616857	0
284.5	-11.879914834523	0
284.75028439679	-13.561350204016	0
286.46377774127	-13.027333206975	0
287.62380536216	-14.362119381428	0
287.68435286894	-13.138031270625	0
290.125	-11	0
288.04789266329	-9.8865730921121	0
289.5409651036	-9.1938293275583	0
289.0625	-11	0
289.59375	-10.174271782205	0
291.18349057921	-9.7352376680581	0
288.53125	-12.170746651615	0
289.59375	-11.946971493239	0
291.1875	-12.218562458313	0
289.42133983018	-13.762655518516	0
289.73977812009	-8.1191155980257	0
290.5717857894	-8.8287762653357	0
290.83663275505	-7.5331903200931	0
292.08954747301	-8.4641776421397	0
288.66396667956	-13.141334314331	0
288.52816145002	-14.079146020522	0
289.53075128023	-12.857017090476	0
288.52975188294	-15.670833819564	0
290.71429481064	-13.459430935609	0
290.32720150607	-12.454948699183	0
289.31254693875	-14.874206947552	0
289.52125979648	-17.973531969544	0
290.25407735516	-14.405259307052	0
291.54595521346	-14.448976576175	0
283.5	-11.86613502592	0
290.53530398064	-16.149546000115	0
297.55617417363	-14.505903584641	0
302	-4	0
292.03415174825	-13.252095736745	0
292.33233386081	-12.144282818662	0
293.9597018283	-13.176346099977	0
294.375	-11	0
292.98511728057	-12.91402411892	0
293.3125	-11	0
292.8682735478	-14.091879779364	0
293.84375	-12.026422362445	0
293.84375	-9.296203553911	0
291.51633497554	-17.799848921828	0
295.52896057878	-12.437303059316	0
292.78125	-9.8996332203261	0
289.77120453337	-16.999573165489	0
280	-20.5	0
291.56351146429	-19.531881015793	0
294.61851557132	-14.548945745911	0
296.25	-30	0
294.85657176163	-13.045152347117	0
294.69611307616	-12.19184154264	0
295.4375	-11	0
295.96875	-9.296203553911	0
294.90625	-9.8996332203261	0
299.47423659084	-6.713262814138	0
304.75	-11	0
294.90625	-8.6625100762324	0
289.86915959467	-18.916948025117	0
296.42971178242	-13.254541807258	0
295.95642695691	-8.1092833313779	0
297.18123326836	-8.6900910234076	0
296.72206596491	-7.4858488053811	0
297.1791748368	-6.6656514585406	0
298.21099270894	-6.5299599376983	0
299.64645675721	-5.647508597172	0
300.625	-11	0
292.2203675548	-16.264592259839	0
293.10122760739	-15.344306506345	0
299.42104840893	-7.791531265866	0
296.62677838014	-12.13231904383	0
298.5625	-11	0
297.53125	-11	0
298.3278113458	-13.009441125629	0
298.046875	-9.7403949666318	0
298.046875	-11.958204168815	0
297.34054991699	-12.836074253047	0
297.015625	-10.053587355242	0
299.51329175486	-12.129471378543	0
289.53966357912	-15.880295302894	0
298.39114402182	-8.4651595985885	0
299.59375	-9.8425139365257	0
290.76853421694	-17.127641997638	0
291.82774918908	-15.377367335712	0
290.54029250537	-18.133602160298	0
290.8738568745	-15.20014798217	0
294.13654308339	-17.216972890954	0
299.36441346787	-8.829062617215	0
301.10422503382	-8.9680303772043	0
300.27744834523	-8.3585903431027	0
301.66811834995	-7.3375134813426	0
300.46104966716	-7.1510890229083	0
293.67297180343	-14.590082517563	0
294.18950855022	-15.575465538463	0
293.45136136361	-16.373256393415	0
296.05011161314	-15.750149771975	0
292.84008423538	-17.569750328993	0
292.34493037627	-18.643938463412	0
293.37810173447	-20.340972106788	0
293.83877830907	-18.681320949228	0
292.59694538875	-19.653528600314	0
291.88515762917	-21.249891676538	0
280	-9.5	0
282.46481877991	-8.7737811956826	0
282	-11	0
282.67768401296	-9.9798607976201	0
281.56764512221	-9.5539509996067	0
283	-11	0
288.18237306247	-19.003122764153	0
280	-15.75	0
283.98701122924	-12.815619354676	0
282.5	-11.866025410722	0
283.17281386399	-14.41244911842	0
282.99990614688	-12.722285582073	0
280	-13.375	0
283.42120510072	-13.533111907051	0
281.49518346371	-13.026721440499	0
284.07205179908	-14.191710994791	0
282.34661097028	-13.704316198076	0
283.97640255441	-15.744073842965	0
285.42199772154	-14.964126166082	0
281.39634329735	-11.925871628486	0
280	-14.5625	0
280	-12.1875	0
282.11756630805	-14.807596482746	0
281.24575802623	-15.698927923165	0
282.95951986604	-15.449445664239	0
282.99550338074	-17.227405504687	0
283.63579945077	-10.10501079652	0
285.511696456	-12.988442781257	0
285.66552102679	-13.985304542851	0
286.5390943356	-14.722347051484	0
286.21348267375	-15.919478194238	0
287.3955514766	-15.488050340916	0
280	-18.125	0
285.07742989782	-16.05513050837	0
284.22352846251	-16.973484398874	0
285.82101067185	-17.457526580049	0
280	-16.9375	0
281.45431698974	-17.53125	0
284.01669698296	-19.069672970631	0
283.79331306856	-17.989333276634	0
282.46245311823	-18.584213610918	0
284.96128903819	-18.311093248729	0
285.70543106634	-20.20510554422	0
286.3561392766	-18.856257756817	0
285.03808005145	-19.374112507478	0
284.0391974575	-20.859755178758	0
293	-5.1915411614997	0
300.625	0	0
298.5625	0	0
296.23180792752	-2.4370706068741	0
296.99679238489	-1.9988869626074	0
298.4120855944	-2.4345368735771	0
297.53125	0	0
297.90789075476	-1.5557594092567	0
297.07479535852	-1.0010642170062	0
299.41579449449	-1.2746345964129	0
288.81334499921	-6.4262800591824	0
286.61485016504	-10.234644662023	0
287.23554859827	-9.6660975772279	0
291.1875	-11	0
292.02753903632	-9.3784406564006	0
291.88741252916	-10.223703875301	0
292.86297670515	-8.9758685702607	0
293.10922897542	-7.7632832736825	0
293.96673840398	-8.2948335225789	0
293.23731755112	-6.4696523149443	0
292.11578254258	-7.4101668537255	0
292.38083818432	-5.9675940372515	0
292	-5.028727376965	0
299	-4	0
299.59375	-11	0
301.88033582634	-13.347441154839	0
300.655495664	-9.9346965227212	0
302.6875	-11	0
301.94493855932	-9.9457760001266	0
301.65625	-11	0
301.140625	-12.233637514081	0
302.171875	-11.940093387056	0
303.71875	-12.177075229963	0
303.71875	-9.4849905205678	0
300.23369956454	-13.638488274504	0
302.53827567031	-8.5852795982481	0
302.91843259896	-10.048708328543	0
303.71875	-11	0
300.99354373633	-13.133852681983	0
300.30280604065	-12.558873815903	0
301.19209799626	-14.257198773524	0
300.24033048677	-11.733228087806	0
299.52360954658	-13.051016185799	0
299.00239724141	-14.403903096897	0
302.99507977955	-14.905959652618	0
300.13190334105	-14.847820360971	0
[...]
CELL_DATA 6669
SCALARS Marker double 1
LOOKUP_TABLE default
2 3 1 1 2 1 3 1 1 2 3 2 2 3 1 3 2 3 1 2 1 3 2 3 1 2 3 2 1 2 2 3 1 1 3 1 1 3 2 1 2 1 3 2 1 2 1 1 2 1 2 1 1 1 2 1 1 2 1 2 2 1 2 1 1 2 1 1 2 1 1 2 1 1 1 2 1 1 2 1 1 2 1 1 2 1 2 1 1 2 1 1 1 1 1 2 1 1 1 1 1 1 1 1 1 1 2 2 2 1 1 1 1 1 1 1 1 1 1 1 1 1 1 1 1 1 1 1 1 2 1 1 1 1 1 1 1 1 1 1 1 1 1 1 2 2 2 2 2 2 1 1 1 2 1 1 3 1 1 1 1 1 1 1 1 1 2 1 1 2 2 1 1 1 1 2 2 1 1 2 2 2 2 2 2 2 2 2 2 2 2 2 2 2 2 2 2 2 1 1 2 2 2 1 2 2 1 2 2 1 1 2 2 2 3 2 2 2 2 2 2 2 2 2 2 2 2 2 3 2 2 1 2 2 2 2 2 2 2 2 2 2 2 2 2 2 2 2 2 2 3 2 1 1 1 1 1 1 1 2 1 1 1 1 2 2 1 2 2 1 2 2 1 1 1 3 2 2 1 1 1 1 2 2 2 2 1 1 2 2 2 2 2 2 1 1 1 2 2 2 1 1 1 1 2 2 2 2 2 3 2 2 2 2 2 3 2 2 2 2 2 2 2 2 2 2 2 3 2 2 2 2 3 3 3 3 3 3 3 3 3 3 3 3 3 3 3 3 3 3 2 2 2 3 2 2 2 3 2 2 2 2 3 3 3 3 3 3 3 3 2 2 2 2 2 2 2 2 3 3 3 3 3 3 3 3 3 3 3 3 3 3 3 3 3 3 3 3 3 2 3 3 3 3 2 3 3 3 3 3 3 3 3 2 3 3 3 2 3 3 3 3 2 2 3 3 3 3 2 2 3 3 3 3 2 3 3 3 3 3 3 3 3 3 3 2 2 2 2 2 3 2 3 3 2 2 3 3 3 3 2 2 2 2 2 2 2 2 2 2 2 2 2 2 2 3 3 3 2 2 3 2 3 3 2 3 3 3 2 2 3 3 3 3 2 2 3 3 3 3 2 2 2 2 3 3 3 3 3 3 3 3 3 3 2 2 2 2 2 2 2 1 2 2 3 3 3 3 3 3 3 3 3 3 3 3 3 3 3 3 3 3 3 2 2 2 2 3 2 2 2 2 2 3 3 3 3 3 3 3 3 3 3 3 3 3 3 3 3 3 3 3 3 3 3 3 3 3 3 3 3 3 3 3 3 3 3 3 3 3 2 2 3 3 3 3 3 3 3 3 3 3 3 3 3 3 3 3 3 3 3 3 3 3 3 3 3 3 3 3 3 3 3 3 3 3 3 3 2 2 1 1 1 1 1 1 1 1 1 1 1 1 1 1 1 2 2 2 2 2 2 2 3 2 2 2 2 2 2 2 2 2 2 2 2 2 2 2 2 2 2 2 2 3 2 3 3 2 2 2 3 2 2 2 3 3 3 3 3 3 3 2 2 3 3 2 2 2 2 2 3 3 3 3 3 3 3 3 3 3 3 3 3 3 3 3 3 3 3 3 3 3 3 3 3 3 3 3 3 3 3 3 3 3 3 3 3 3 3 3 3 3 3 3 3 3 3 3 3 3 3 3 3 3 3 3 3 3 3 3 3 3 3 3 3 3 3 3 3 3 3 3 3 3 3 3 3 3 3 3 2 3 2 3 2 3 3 2 2 2 2 2 2 2 2 2 2 2 2 2 2 3 3 3 3 3 3 3 3 3 3 3 3 3 3 3 3 3 3 3 3 3 3 3 3 3 3 3 3 3 3 3 3 3 3 3 3 2 1 3 3 3 3 3 3 3 3 3 3 3 3 3 3 3 3 3 3 3 3 3 3 3 3 2 2 2 1 2 1 2 1 2 2 3 3 3 3 3 3 3 3 3 3 3 3 3 3 3 3 3 3 3 3 3 3 3 3 3 3 3 3 3 3 3 3 3 3 3 3 3 3 3 3 3 3 3 3 3 3 3 3 3 3 3 3 3 3 3 3 3 3 3 3 3 3 3 3 3 3 3 3 3 3 3 3 3 3 3 3 3 3 3 3 3 3 3 3 3 3 3 3 3 3 3 3 3 3 3 3 3 3 3 3 3 3 3 3 3 3 3 3 3 3 3 3 3 3 3 3 3 3 3 3 3 3 3 3 3 3 3 3 3 3 3 3 3 3 3 3 3 3 3 3 3 3 3 3 3 3 3 3 3 3 3 3 3 3 3 3 3 3 3 3 3 3 3 3 3 3 3 3 3 3 3 3 3 3 3 3 3 3 3 3 3 3 3 3 3 3 3 3 3 3 3 3 3 3 3 3 3 3 3 3 3 3 3 3 3 3 3 3 3 3 3 3 3 3 3 3 3 3 3 3 3 3 3 3 3 3 3 3 3 3 3 3 3 3 3 3 3 3 3 3 2 1 2 2 2 2 3 3 3 3 3 3 3 3 3 3 3 3 3 3 3 3 3 3 3 3 3 3 3 3 3 3 3 3 3 3 3 3 3 3 3 2 2 1 1 1 1 1 1 1 1 1 1 1 1 1 1 1 1 1 1 1 1 1 1 1 1 1 1 1 1 1 2 2 2 2 2 2 2 2 2 2 2 2 1 1 2 2 2 1 1 1 1 1 1 1 1 1 1 1 2 2 2 1 2 1 1 2 2 3 3 3 3 3 3 3 3 3 3 3 3 3 3 3 3 3 3 3 3 2 3 3 3 3 3 3 3 3 3 3 3 3 3 3 3 3 3 3 3 3 3 3 3 3 3 3 3 3 3 3 3 3 3 3 3 3 3 3 3 2 3 3 3 3 3 3 3 3 3 3 2 3 3 2 2 2 2 2 3 2 2 2 2 2 2 2 2 2 2 2 2 3 2 1 2 2 2 2 2 2 2 2 2 2 2 2 2 3 3 3 3 3 3 3 3 3 3 3 3 2 3 3 2 3 3 3 3 3 3 3 3 3 3 3 3 3 3 3 3 3 3 3 3 3 3 3 3 3 2 2 3 2 2 2 3 3 3 3 1 3 3 3 2 3 3 2 3 2 2 3 3 3 3 3 3 3 3 3 3 3 3 2 1 2 2 3 3 3 3 2 2 2 2 2 2 2 2 2 1 1 2 2 2 2 2 2 1 2 1 1 2 2 2 2 1 1 2 2 2 1 2 2 2 2 2 1 1 1 1 1 1 1 1 1 1 1 1 1 1 1 1 1 1 1 1 1 3 1 3 3 3 3 3 3 3 3 3 3 3 3 2 2 2 2 3 3 3 3 3 3 3 3 3 3 2 3 2 2 1 1 1 1 1 3 2 2 3 2 2 2 1 1 1 1 1 1 1 1 1 1 1 1 1 1 1 1 1 3 3 2 2 3 2 2 2 2 2 2 2 2 2 2 1 2 2 2 2 1 2 2 2 2 3 3 2 3 3 3 3 3 3 3 3 3 3 3 3 3 3 3 3 3 3 3 2 2 2 2 2 2 3 3 3 3 3 3 3 3 3 3 3 3 3 3 3 2 3 1 2 1 1 1 1 1 3 3 3 3 3 3 1 2 1 1 1 3 3 2 3 1 1 3 3 3 3 3 3 2 2 3 3 3 3 3 2 2 1 2 3 3 3 3 3 3 2 2 2 2 2 2 2 2 2 2 2 2 1 1 1 1 3 3 3 3 3 3 3 3 3 3 3 3 3 3 3 3 3 3 3 3 3 3 3 3 3 3 3 3 3 3 3 3 3 3 3 3 3 3 3 2 2 2 1 1 3 3 3 3 3 3 2 3 2 2 1 1 1 1 1 3 3 3 3 3 3 3 3 3 3 3 3 3 3 3 3 3 3 3 3 3 3 3 3 3 3 3 3 3 3 3 3 3 3 3 3 3 3 3 3 3 3 3 3 3 3 3 3 3 3 2 3 2 2 3 2 2 2 3 2 2 2 2 2 2 2 2 2 3 1 3 3 3 3 3 3 3 3 3 3 3 3 3 3 3 3 3 3 3 3 3 3 3 2 3 2 2 3 3 2 2 3 3 3 3 3 3 3 3 3 3 3 3 3 3 2 2 3 3 3 3 3 2 3 3 3 3 3 3 3 2 3 3 3 3 3 3 3 3 3 3 3 3 2 3 3 3 3 2 3 2 3 2 3 3 2 2 3 3 2 2 3 3 2 2 2 2 3 3 2 2 3 3 3 2 2 2 2 2 3 3 2 2 2 2 2 2 3 2 2 2 2 2 3 3 3 3 3 3 3 3 3 3 3 3 3 3 3 3 3 3 3 3 3 3 3 3 3 3 3 3 3 3 3 3 3 3 3 3 2 2 2 2 2 2 3 3 3 3 3 2 3 3 3 3 3 3 3 3 3 2 3 3 2 2 2 2 2 2 2 2 2 2 2 2 1 2 2 2 2 2 2 2 2 2 2 2 3 3 3 3 3 3 3 3 3 3 3 3 3 3 3 3 3 3 3 3 3 3 3 3 3 3 3 3 3 3 3 3 2 3 3 3 3 2 2 2 2 2 2 2 2 2 3 3 3 3 2 2 2 2 3 3 3 3 3 2 2 2 2 2 3 3 3 3 3 3 3 3 3 3 3 3 3 3 3 3 2 2 2 2 2 2 2 2 2 2 2 2 2 2 1 2 2 2 2 2 2 2 2 2 2 2 2 2 2 1 2 2 2 1 2 2 2 2 2 1 2 2 2 2 2 1 1 1 1 1 1 3 3 3 3 3 3 3 3 3 3 3 3 3 3 3 3 3 3 3 3 3 3 3 3 3 3 3 3 3 3 2 1 2 1 2 2 1 1 1 1 2 2 1 1 2 1 2 3 3 3 3 3 3 3 3 3 3 3 3 1 2 1 1 1 2 2 1 1 3 3 3 3 3 3 2 2 1 1 1 1 1 1 3 3 3 3 1 1 3 3 3 3 1 1 1 3 3 3 3 3 3 3 3 3 3 2 3 3 3 1 1 3 3 3 3 3 3 3 3 1 1 1 1 1 3 3 3 3 2 3 3 3 3 3 3 3 3 3 3 3 3 3 3 3 3 3 3 3 3 3 3 3 3 3 3 3 3 3 3 3 3 3 3 3 3 3 3 3 3 3 3 3 3 3 3 3 3 3 3 3 3 3 3 3 3 3 3 3 3 3 3 3 3 3 3 3 3 3 3 3 3 3 3 3 3 3 3 3 3 3 3 3 3 3 3 3 3 3 3 3 3 3 3 3 3 3 3 3 3 3 3 3 3 3 3 3 3 3 3 3 3 3 3 3 3 3 3 3 3 3 3 3 3 3 3 3 3 3 3 3 3 3 3 3 3 3 3 3 3 3 3 3 3 3 3 3 3 3 3 3 3 3 3 3 3 3 3 3 3 3 3 3 3 3 3 3 3 3 3 3 3 3 3 3 3 3 3 3 3 3 3 2 2 2 2 2 2 3 3 3 3 1 3 1 1 1 1 1 1 1 1 1 1 1 3 1 1 3 3 3 3 3 2 2 2 2 3 3 3 3 3 3 3 3 3 3 3 2 3 3 2 2 2 2 2 3 3 3 3 3 3 3 3 3 3 3 3 3 2 2 2 2 1 1 1 3 3 2 2 2 2 2 2 3 3 3 3 2 2 2 2 1 1 1 1 1 1 1 1 1 2 1 3 3 3 3 3 3 2 2 2 1 2 2 1 1 1 3 3 3 3 3 3 3 3 3 3 3 3 3 3 3 3 3 3 3 3 3 3 3 3 3 3 3 3 3 3 3 3 3 3 3 3 3 3 3 3 3 3 3 3 3 3 3 3 3 3 3 3 3 3 3 3 3 3 3 3 3 3 3 3 3 3 3 3 3 3 3 3 3 3 3 3 3 3 3 3 3 3 3 3 3 3 3 3 3 3 3 3 3 3 3 3 3 3 3 3 2 3 3 2 2 3 3 2 2 2 2 2 2 2 2 3 3 3 3 3 3 2 2 2 2 2 2 2 2 1 2 2 2 2 2 2 2 2 2 2 2 2 1 1 1 1 1 2 2 2 2 2 2 2 2 2 1 2 2 1 1 1 1 1 1 1 1 1 1 1 1 1 1 1 1 1 1 1 1 1 1 1 1 1 1 1 1 1 1 1 1 1 1 1 1 3 1 3 3 3 3 3 3 3 3 3 3 3 3 3 3 3 3 3 3 3 3 3 3 2 3 3 3 3 3 3 3 3 3 3 3 3 3 3 3 3 3 3 3 3 3 3 3 3 3 3 3 3 3 3 3 3 3 3 3 3 3 3 3 3 3 3 3 3 3 3 3 3 3 3 3 3 3 3 3 3 3 3 3 3 3 3 3 3 3 3 3 3 3 3 3 3 3 3 3 3 3 3 3 3 3 3 3 3 3 3 3 3 3 3 3 3 3 3 3 3 3 3 3 3 3 3 3 3 3 3 3 3 3 3 3 3 3 3 3 3 3 3 3 3 3 3 3 3 3 3 3 3 3 3 3 3 3 3 3 3 3 3 3 3 3 3 3 3 3 3 3 3 3 3 3 3 3 3 3 3 3 3 3 3 3 3 3 3 3 3 3 3 3 3 3 3 3 3 3 3 3 3 3 3 3 3 3 3 3 3 3 3 3 3 3 3 3 3 3 3 3 3 3 1 1 2 2 2 2 1 1 3 2 2 2 2 2 2 2 2 2 2 2 2 2 2 2 2 2 2 2 3 3 1 1 1 1 1 1 1 1 2 2 2 2 2 2 3 3 3 3 3 3 1 1 1 1 1 1 1 1 1 1 1 1 1 1 1 1 1 1 1 3 1 3 3 3 3 3 3 3 3 3 3 3 3 3 3 3 3 3 3 3 3 3 2 2 2 2 2 3 3 3 3 3 3 3 3 3 3 3 3 3 3 3 3 3 3 3 3 3 2 2 3 3 3 3 3 3 3 3 3 3 3 3 3 3 3 3 3 3 3 3 3 3 3 3 3 3 3 2 3 2 3 3 2 2 3 3 3 3 2 2 2 2 2 2 3 3 3 3 2 2 2 2 2 3 3 3 3 3 3 3 2 2 3 3 3 3 3 3 3 3 3 3 1 3 3 2 3 3 3 3 3 3 3 3 3 3 2 2 2 2 3 3 3 3 3 3 3 3 3 3 3 3 3 3 3 3 3 2 3 3 3 3 2 2 3 3 3 2 2 2 2 2 2 2 2 3 3 3 3 3 3 3 3 3 3 3 3 3 3 3 1 3 3 3 3 3 3 3 2 2 3 3 3 3 3 3 3 3 3 3 3 3 3 3 3 3 3 3 3 3 3 2 2 2 2 2 2 2 3 3 3 3 3 3 3 3 3 3 3 3 3 3 2 2 2 1 2 2 3 3 3 3 3 3 3 2 3 3 2 2 2 2 2 2 2 2 2 1 2 2 2 1 2 2 1 1 1 1 3 3 3 3 3 3 3 3 3 3 3 3 3 2 2 2 1 2 2 2 2 2 2 2 2 2 2 2 2 2 2 2 2 2 2 2 2 1 1 1 1 1 1 2 2 1 1 1 1 1 1 1 2 2 1 1 3 3 3 3 3 3 3 3 1 2 1 1 1 1 1 1 1 1 2 2 2 2 2 2 1 1 1 1 1 1 1 1 1 1 1 1 1 2 2 2 3 3 3 3 3 3 3 3 3 3 3 3 3 3 3 3 3 3 1 1 1 1 1 2 2 1 1 1 1 3 1 3 1 1 1 1 1 1 1 1 1 2 1 1 2 2 1 2 2 2 1 1 1 2 2 2 2 2 2 2 3 3 2 2 2 2 2 2 2 2 2 2 2 3 2 2 3 3 3 3 3 3 3 3 3 3 2 2 2 2 3 3 3 2 2 2 3 2 2 3 3 3 3 3 3 3 3 2 2 2 3 2 2 2 2 1 1 3 1 3 3 3 3 3 3 3 3 3 3 3 3 3 3 3 3 3 3 3 3 3 3 3 3 3 3 3 3 3 3 3 3 3 3 3 3 3 3 3 3 3 3 3 3 3 3 3 3 3 3 3 3 3 3 3 3 3 3 3 3 3 3 3 3 3 3 3 3 3 3 2 2 3 3 3 3 3 3 3 3 3 3 3 3 3 3 3 3 3 3 2 2 3 3 3 3 3 3 3 3 3 3 3 3 1 1 1 1 1 1 1 1 1 1 1 1 1 1 1 1 1 1 1 2 1 1 1 1 2 2 1 1 1 1 1 1 1 1 1 1 1 1 1 1 1 1 1 1 1 1 1 1 1 2 3 3 3 3 3 3 2 2 3 3 2 2 2 2 2 2 2 2 2 2 2 3 2 2 2 2 2 2 2 2 2 2 2 2 2 3 3 3 3 3 3 3 3 3 2 2 2 2 3 3 3 3 3 3 3 3 3 3 3 3 3 3 3 3 3 3 3 3 3 3 3 3 3 3 3 3 3 3 3 3 3 3 3 3 3 3 3 3 3 3 3 3 3 3 3 3 3 3 3 3 3 3 3 3 3 3 3 3 3 3 3 3 3 3 3 3 3 3 3 3 3 3 3 3 3 3 3 3 3 3 3 3 3 3 3 3 3 3 3 3 3 3 3 3 2 3 3 3 3 3 3 3 3 3 3 3 2 3 3 3 3 3 3 3 3 3 3 3 3 3 3 3 3 3 3 3 3 3 3 3 3 3 3 3 3 3 3 3 3 3 3 3 3 3 3 2 2 2 2 1 2 1 1 1 2 1 1 2 2 2 2 2 2 2 2 3 3 3 3 3 3 2 2 2 2 2 3 2 2 2 2 2 2 2 2 2 2 2 2 3 3 2 2 2 2 2 2 3 3 3 3 3 2 2 2 2 2 2 2 2 2 2 2 2 2 2 3 2 2 3 2 2 2 2 2 2 1 2 2 2 2 2 2 3 2 2 2 2 2 2 2 2 2 3 3 3 3 3 3 3 3 3 3 3 3 3 3 3 3 3 3 3 3 3 3 3 3 3 3 3 3 3 3 3 3 3 3 3 3 3 3 3 3 3 3 3 3 3 3 3 3 3 3 3 3 3 3 3 3 3 3 3 3 3 3 3 3 3 3 3 3 2 3 3 3 3 2 3 3 2 2 2 2 3 3 3 3 2 2 2 2 2 2 2 2 2 2 3 3 2 3 2 2 2 2 3 3 2 2 2 2 3 2 3 3 3 3 3 2 2 3 1 3 3 3 2 2 2 2 3 3 3 2 3 3 3 3 3 2 3 3 3 3 3 2 3 3 3 3 3 3 2 2 2 2 2 2 3 3 2 2 2 2 2 1 2 1 2 2 2 2 2 2 2 2 1 2 2 2 2 2 2 2 2 2 1 1 2 2 2 2 2 2 1 1 1 1 1 1 1 1 1 1 1 1 1 1 1 1 1 1 1 1 1 3 1 3 3 3 3 2 3 2 1 1 1 3 3 3 3 1 1 3 3 3 3 3 3 3 3 3 3 3 2 3 3 3 3 3 3 3 3 3 3 3 3 3 3 3 3 3 3 3 3 2 2 2 2 2 2 2 2 2 2 2 2 2 1 2 2 3 3 3 3 3 3 3 3 3 3 3 3 3 3 3 3 3 3 3 3 3 3 3 3 3 3 3 3 3 3 3 3 3 3 3 3 3 3 3 3 3 3 3 3 3 3 3 3 3 3 3 3 3 3 3 3 3 3 3 3 3 3 3 3 3 3 3 3 3 3 3 3 3 3 3 3 3 3 3 3 3 3 3 3 3 3 3 3 3 3 3 3 3 3 3 3 3 3 3 3 3 3 3 3 3 3 1 1 1 1 1 1 1 1 1 1 1 2 1 2 2 2 2 2 3 3 3 3 3 2 2 2 2 2 2 2 2 2 2 2 2 2 2 2 2 2 1 2 2 2 2 2 2 2 2 2 2 1 1 1 1 1 1 2 2 2 2 2 2 2 2 2 1 2 2 2 2 2 1 1 1 2 1 1 1 1 1 1 1 1 1 1 2 1 1 2 2 1 1 2 1 1 1 1 2 2 1 2 1 1 1 1 1 2 2 2 2 2 2 2 2 2 2 1 1 1 3 3 3 3 3 3 3 3 3 3 3 3 3 3 3 3 2 2 3 3 3 3 3 3 3 3 3 3 3 3 3 3 3 3 3 3 3 3 3 3 3 3 3 3 3 3 3 3 3 3 3 3 3 3 3 3 3 3 3 3 3 3 3 3 3 3 3 3 3 3 3 3 3 3 3 3 3 3 3 3 3 3 3 3 3 3 3 3 3 3 3 3 3 3 3 3 3 3 3 3 3 3 3 3 3 3 3 3 3 3 3 3 3 3 3 3 3 3 3 3 3 3 3 3 3 3 3 3 3 3 3 3 3 3 3 3 3 3 3 3 3 3 3 3 3 3 3 3 3 3 3 3 3 3 3 3 3 3 3 3 3 3 3 3 3 3 3 3 3 3 3 3 3 3 3 3 3 1 1 1 2 2 2 2 2 2 2 3 2 2 2 2 2 2 1 1 1 1 1 1 1 1 3 3 3 2 3 3 3 2 3 3 3 3 2 2 2 2 2 2 2 2 3 3 3 3 2 2 3 3 2 2 3 3 3 2 3 3 3 3 3 3 3 3 3 3 3 3 3 3 3 3 3 3 3 3 3 3 3 3 3 3 3 3 3 3 3 3 3 3 3 3 3 3 3 3 3 3 3 3 3 3 3 3 3 3 3 3 3 3 3 3 3 3 3 3 3 3 3 3 3 3 3 3 3 3 3 3 3 3 3 3 3 3 3 3 3 3 3 3 3 3 3 3 3 3 3 3 3 3 3 3 3 3 3 3 3 3 3 3 3 3 3 3 3 3 3 3 3 3 3 3 3 3 3 3 3 3 3 3 3 3 3 3 3 3 3 3 3 3 3 3 3 3 3 3 3 3 3 3 3 3 3 3 3 3 3 3 3 3 3 3 3 3 3 3 3 3 3 3 3 3 3 3 3 3 3 3 3 3 3 3 3 3 3 3 3 3 3 3 3 3 3 3 3 3 3 3 3 3 3 3 3 3 3 3 3 3 3 3 3 3 3 3 3 3 3 3 3 3 3 3 3 3 3 3 3 3 3 3 3 3 3 3 3 3 3 3 3 3 3 3 3 1 1 1 1 1 1 2 1 1 1 1 1 1 1 2 1 1 1 1 1 1 1 2 1 1 1 2 1 1 2 2 2 2 2 3 2 2 3 2 2 2 1 2 3 3 2 2 2 2 2 2 1 1 1 1 1 1 2 2 2 2 1 1 1 1 1 1 2 2 2 2 2 2 2 2 2 2 2 2 3 2 2 3 2 2 2 2 2 2 2 2 2 2 2 3 3 3 3 3 3 3 3 3 3 3 3 3 3 3 3 3 3 3 3 2 2 2 2 2 2 2 2 2 2 2 2 2 2 3 3 3 3 3 3 3 2 2 2 2 3 3 3 3 2 2 2 2 2 2 2 2 2 3 3 3 3 3 3 3 3 3 2 2 2 2 3 3 2 2 2 1 2 2 1 1 3 3 3 3 3 3 3 3 3 3 3 3 3 3 3 3 3 3 3 3 3 3 3 3 3 3 3 3 3 3 3 3 3 3 3 3 3 3 3 3 3 3 3 3 3 3 3 3 3 3 3 3 3 3 3 3 3 3 3 3 3 3 3 3 3 3 3 3 3 3 3 3 3 3 3 3 3 3 3 3 3 3 3 3 3 3 3 3 3 3 3 3 3 3 3 3 3 3 3 3 3 3 3 3 3 3 3 3 3 3 3 3 1 1 1 2 1 1 2 2 1 1 1 1 1 1 1 2 2 2 2 2 2 2 1 1 2 2 1 1 1 2 1 1 1 1 1 1 1 1 1 1 1 1 1 1 1 1 1 2 1 2 2 2 3 3 3 3 3 3 3 3 3 3 3 3 3 3 3 3 3 3 3 3 3 3 3 3 3 3 3 3 3 3 3 3 3 3 3 3 3 3 3 3 3 3 3 3 3 3 3 3 2 2 2 2 2 2 2 2 2 2 2 2 2 2 2 3 2 2 2 2 2 3 2 2 2 2 2 2 2 2 2 2 2 2 2 2 2 2 1 2 2 3 2 3 2 2 3 3 3 3 3 3 3 3 2 2 2 2 2 2 2 2 3 3 3 3 3 3 3 3 3 3 3 3 3 3 3 3 3 3 3 3 3 3 3 3 3 3 3 3 3 3 3 3 3 3 3 3 3 3 3 3 3 3 3 3 3 3 3 3 3 3 3 3 3 3 3 3 3 3 3 3 3 3 3 3 3 3 3 3 3 3 3 3 3 3 3 3 3 3 3 3 3 3 3 3 3 3 3 3 3 3 3 3 3 3 3 3 3 3 3 3 3 3 3 3 3 3 3 3 3 3 3 3 3 3 3 3 3 3 3 3 3 3 3 2 2 1 2 2 2 2 2 1 1 2 2 1 1 1 2 1 1 2 2 2 2 2 3 2 2 1 1 1 1 1 1 1 1 1 1 1 1 1 1 1 3 3 3 3 3 3 3 3 3 3 3 2 3 3 3 3 2 2 2 2 3 3 3 3 3 3 3 3 3 3 3 3 3 3 3 3 3 3 3 3 3 3 3 3 3 3 3 3 3 3 3 3 3 3 3 3 3 3 3 3 3 3 3 3 3 3 3 3 3 3 3 3 3 3 3 3 3 3 3 3 3 3 3 3 3 3 2 2 2 2 1 2 1 1 1 2 1 1 1 2 1 1 2 2 2 2 2 2 2 2 1 1 2 1 2 2 2 2 2 2 2 1 1 2 3 1 1 1 1 1 1 1 1 1 1 2 3 2 2 2 2 2 2 2 2 3 3 3 3 3 3 3 3 3 3 3 3 3 3 3 3 3 3 3 3 3 3 3 3 3 3 3 3 3 3 3 3 3 3 3 3 3 3 3 3 3 3 3 3 3 3 3 3 3 3 3 3 3 3 3 3 3 3 3 3 3 3 3 3 3 3 3 3 3 3 3 3 3 3 3 3 3 3 3 3 3 3 3 3 3 3 3 2 3 3 3 3 3 3 3 3 3 3 3 3 3 3 3 3 3 3 3 3 3 3 3 3 2 2 3 3 3 3 3 3 3 3 3 2 3 3 2 2 2 2 2 2 2 2 3 3 3 3 3 3 3 3 3 3 3 3 3 3 3 3 2 3 3 3 3 3 3 3 3 3 3 3 3 3 3 2 3 2 3 3 3 3 3 3 3 3 3 3 3 3 3 3 2 3 3 3 2 3 3 3 2 2 3 3 3 3 3 3 3 3 3 3 3 3 3 3 3 3 3 3 2 2 2 2 2 2 2 2 2 2 2 2 2 2 2 2 2 2 2 2 2 2 2 2 2 2 2 2 2 2 2 2 3 3 3 3 3 3 3 3 3 3 3 3 3 3 3 3 3 3 3 3 3 3 3 3 3 3 3 3 3 3 3 3 3 3 3 3 3 3 3 3 3 3 3 3 3 3 3 3 3 3 3 3 3 3 3 3 3 3 3 3 3 3 3 3 3 3 3 3 3 3 3 3 3 3 3 3 3 3 3 3 3 3 3 3 3 3 3 3 3 3 3 3 3 3 3 3 3 3 3 3 3 3 3 3 3 3 3 3 3 3 3 3 3 3 3 3 3 3 3 3 3 3 3 3 3 3 3 3 3 3 3 3 3 3 3 3 3 3 3 3 3 3 3 3 3 3 3 3 3 3 3 3 3 3 3 3 3 3 3 3 3 3 3 3 3 3 3 3 3 3 3 3 3 3 3 3 3 3 3 3 3 3 3 3 3 3 3 3 3 3 3 3 3 3 3 3 3 3 3 3 3 3 3 3 3 3 3 3 3 3 3 3 3 3 3 3 3 3 3 3 3 3 3 3 3 3 3 3 3 3 3 3 3 3 3 3 3 3 3 3 3 3 3 3 3 3 3 3 3 3 3 3 3 3 3 3 3 3 3 3 3 3 3 3 3 3 3 3 3 3 3 3 3 3 3 3 3 3 3 3 3 3 3 3 3 3 3 3 3 3 3 3 3 3 3 3 3 3 3 3 3 3 3 3 3 3 3 3 3 3 3 3 3 3 3 3 3 2 3 3 3 3 3 3 3 3 3 3 3 3 3 3 3 3 3 3 3 3 3 3 3 3 3 3 3 3 3 3 3 3 3 3 3 3 3 3 2 1 2 2 2 2 1 1 1 2 1 1 1 2 1 1 2 2 2 2 2 2 2 2 1 1 1 1 1 1 1 1 1 1 1 1 1 1 1 3 3 3 3 2 2 2 2 3 3 3 3 3 2 2 2 2 2 2 2 2 2 2 2 3 3 3 3 3 3 3 3 3 3 3 3 3 3 3 3 3 3 3 3 3 3 3 3 3 3 3 3 3 3 3 3 3 3 3 3 3 3 3 3 3 3 3 3 3 3 3 3 3 3 3 3 3 3 3 3 3 3 3 3 3 3 3 2 2 2 2 2 2 2 2 2 2 2 2 2 2 2 1 2 2 2 2 2 2 2 1 2 2 1 1 1 1 2 2 2 2 2 2 2 2 2 2 3 2 2 1 2 3 3 3 2 1 2 2 3 3 2 2 2 2 2 2 2 2 3 3 3 3 3 3 3 3 3 3 3 3 3 3 3 3 3 3 3 3 3 3 3 3 3 3 3 3 3 3 3 3 3 3 3 3 3 3 3 3 3 3 3 3 3 3 3 3 3 3 3 3 3 3 3 2 1 2 2 1 1 1 1 1 1 1 1 1 1 1 2 2 1 1 1 1 1 1 1 1 1 1 1 2 1 1 1 1 1 2 1 1 2 2 2 1 2 1 1 2 2 2 2 2 2 2 2 2 2 2 2 2 2 2 2 2 2 1 1 1 1 1 1 1 1 1 1 1 2 2 3 3 2 3 1 2 3 3 3 3 3 3 3 3 3 3 1 3 1 1 1 2 2 3 3 2 2 3 3 3 3 3 3 
POINT_DATA 3477
SCALARS ab-pot double 1
LOOKUP_TABLE default