# vtk DataFile Version 3.0
d-2__ created by libgimli-v1.5.0-1-g5991b6ac
ASCII
DATASET UNSTRUCTURED_GRID
POINTS 3065 double
14.646647106361	10.075660810886	0
14.704832811816	9.9744824778853	0
14.741572761215	10.143570688214	0
7.2181179570912	12.323267801616	0
6.9022853070009	12.159878277929	0
7.188568129403	11.864968865302	0
12.573766225573	8.2541691958959	0
12.179090385116	7.8396649872294	0
12.486344232856	7.7791041952802	0
10.909490913954	12.100065284392	0
11.157527929117	12.134706706046	0
10.807865018668	12.328963878518	0
10.246630703596	12.451261426896	0
10.370786380608	12.571785344107	0
10.283370652996	12.620349637225	0
23.486823884586	4.2589561787297	0
23.872774184789	4.3331786567402	0
23.693453371076	4.6788038393608	0
9.4017034496321	12.989518397958	0
9.459889155087	12.888340064957	0
9.4966291044861	13.057428275285	0
8.6528831969526	9.1661723501876	0
9.0889129509339	9.1546198128334	0
9.0172223973042	9.5848707535605	0
4.95	14.894536113346	0
4.9002967662305	14.698789777549	0
5.05	14.834347813918	0
7.8357302798552	13.980149844525	0
7.7483145522431	14.028714137643	0
7.7115746028439	13.859625927314	0
7.9373561751407	13.751251250399	0
9.2631921819019	12.842543338384	0
9.0547266763919	13.085654315995	0
8.8463136869378	12.696007878209	0
6.9615730037337	14.465792775704	0
6.9945996683525	14.319328169198	0
7.136404458958	14.368664189468	0
21.8222466978	6.2098629456668	0
21.734830970188	6.2584272387846	0
21.698091020789	6.0893390284563	0
9.5840448320983	13.008863982168	0
20.073932145557	7.181148808024	0
19.986516417945	7.2297131011419	0
19.949776468545	7.0606248908135	0
8.1805694002704	13.571297247173	0
8.3602246455282	13.688764085818	0
8.1853931903038	13.785892672053	0
20.765748039212	6.6761602926357	0
20.627236771482	6.5291852330617	0
20.823933744667	6.5749819596349	0
8.5857318789655	13.373982996136	0
8.5275461735105	13.475161329137	0
8.3890349057803	13.328186269563	0
9.2343819216497	13.203121154639	0
9.0595504664254	13.300249740875	0
10.311662072528	12.260060065814	0
10.363276453366	12.455311173661	0
20.948089421678	6.6955058768454	0
21.049715316964	6.4666072827198	0
7.6608988246309	14.077278430761	0
7.653388897389	13.960804260315	0
28.908739718026	5	0
28.508739718026	5	0
28.708739718026	4.8492605261212	0
13.77248983024	10.561303742065	0
13.830675535695	10.460125409064	0
13.867415485094	10.629213619392	0
12.119100932851	11.60049948175	0
12.082360983452	11.431411271421	0
12.206516660463	11.551935188632	0
27.358739718026	4.8945361133462	0
27.309036484257	4.6987897775495	0
27.458739718026	4.8343478139176	0
22.57224829691	5.6036960972777	0
22.798029869207	5.4953214203625	0
22.696403973921	5.7242200144881	0
13.080673936584	11.066292257453	0
12.956518259573	10.945768340243	0
13.18229983187	10.837393663327	0
28.458739718026	4.8343478139176	0
28.408739718026	5	0
12.308142555748	11.323036594506	0
22.547801874951	5.2633883138599	0
13.63397856251	10.414328682491	0
12.024175277997	11.532589604422	0
12.031685205239	11.649063774867	0
15.703145764949	9.6093634639172	0
15.615730037337	9.657927757035	0
15.578990087938	9.4888395467067	0
12.444587677104	9.0315078187863	0
12.75	9.25	0
12.46875	9.40625	0
10.45820210822	12.523221050989	0
14.654157033603	10.192134981332	0
17.902749122926	8.2149218349628	0
18.150786138089	8.249563256617	0
17.801123227641	8.4438204290885	0
11.332359384341	12.03757811981	0
11.244943656729	12.086142412928	0
11.237433729487	11.969668242483	0
17.130607666996	8.4717569577762	0
17.327304640181	8.5175536843494	0
17.269118934726	8.6187320173503	0
12.018062834866	9.3144627641309	0
16.96875	6.90625	0
16.518062834866	6.8144627641309	0
16.944587677104	6.5315078187863	0
12.759821286388	10.899971613669	0
12.551355780878	11.14308259128	0
12.342942791424	10.753436153495	0
16.577303041071	9.1237205327386	0
16.453147364059	9.0031966155281	0
16.678928936356	8.8948219386129	0
21.923872593085	5.9809643515411	0
14.508135838631	9.9286857513121	0
8.7098875559768	13.494506913346	0
8.6224718283646	13.543071206464	0
7.5190940340254	14.02794241049	0
-0.24940646753892	14.834347813918	0
0.05	14.834347813918	0
0	15	0
2.3	15	0
2.2	14.888006064741	0
2.4	14.810067208388	0
11.507190839566	11.940449533575	0
11.36538604896	11.891113513304	0
11.502367049532	11.725854108695	0
0.1	15	0
0.3	14.849260526121	0
0.5	15	0
-0.95957299032574	12.742247653798	0
-0.63660515661073	12.736198774421	0
-0.72105850144488	13.237141247116	0
2.9	15	0
2.7	14.849260526121	0
2.95	14.834347813918	0
1.2	14.888006064741	0
1.3	15	0
1.1	15	0
1.9	15	0
1.95	14.834347813918	0
2	15	0
23.155770102009	4.4707815868157	0
23.398627607885	4.6419549088128	0
22.971047224781	4.718656217856	0
13.779999757482	10.67777791251	0
10.633033563444	12.426092464753	0
10.491228772839	12.376756444483	0
10.628209773411	12.211497039873	0
2.0997032337695	14.698789777549	0
2.05	14.894536113346	0
8.8115134512622	13.265608319221	0
7.6871281808847	13.519318143897	0
3.05	14.894536113346	0
3	15	0
1.05	14.894536113346	0
1	15	0
25.508739718026	5	0
25.458739718026	4.8945361133462	0
25.608739718026	4.888006064741	0
0.95	14.834347813918	0
0.9	15	0
23.708017310135	5.0679061559452	0
23.57570494199	5.2584272387846	0
23.492391392804	5.1534065041647	0
6.5387045333462	14.528279940285	0
6.7500015991102	14.393833151611	0
6.7867415485094	14.562921361939	0
7.4860673694066	14.174407016996	0
7.3112359141823	14.271535603232	0
7.3148706664546	14.058847515876	0
6.0874157276122	14.951435706882	0
6	15	0
5.95	14.834347813918	0
13.954831212706	10.580649326274	0
7.5148776296588	13.813829200741	0
11.889880414633	11.599727754597	0
6.8666473488796	14.397882898376	0
6.8741572761215	14.514357068821	0
1.4	14.810067208388	0
3.95	14.894536113346	0
4.05	14.834347813918	0
4	15	0
3.1	15	0
12.993258208972	11.114856550571	0
12.898332554118	11.046946673243	0
12.90584248136	11.163420843689	0
3.9	15	0
4.1	15	0
2.1	15	0
5.1	15	0
5	15	0
7.1315806689246	14.154068764588	0
5.9	15	0
5.3	14.849260526121	0
4.6070433069999	14.368240644588	0
4.6	14.810067208388	0
5.1938980518111	14.524993056905	0
1.0997032337695	14.698789777549	0
25.708739718026	5	0
4.7	15	0
4.5	15	0
24.408739718026	5	0
24.316180298466	5.0287141376427	0
24.321832839145	4.8833962425865	0
24.708739718026	4.8492605261212	0
24.508739718026	5	0
24.458739718026	4.8343478139176	0
23.483145522431	5.2871413764274	0
11.573663228844	6.6878504141764	0
11.783228215591	6.953244789404	0
11.498511972069	7.1356956560705	0
25.308739718026	5	0
24.908739718026	5	0
25.108739718026	4.8492605261212	0
25.408739718026	5	0
25.358739718026	4.8343478139176	0
15.520804382483	9.5900178797075	0
15.528314309725	9.7064920501529	0
25.921540276389	4.4709363375124	0
26.277022110672	4.3098125374061	0
26.309036484257	4.6987897775495	0
21.069293459246	4.0184782266431	0
21.444587677104	4.0315078187863	0
21.46875	4.40625	0
25.214841666215	4.524993056905	0
25.508442951795	4.6987897775495	0
23.395729794819	5.3357056695452	0
23.358989845419	5.1666174592169	0
29.8125	2.6258505226016	0
30	3	0
29.625	3	0
5.8122409423352	10.291228465074	0
5.9889649985263	10.545789285321	0
5.5715926789368	10.688360310892	0
12.278524372398	8.4033099465931	0
12.266749266227	8.7424709281467	0
11.71080923903	8.5533847165846	0
26.458739718026	4.8343478139176	0
26.358739718026	4.8945361133462	0
23.147692779655	5.301064247891	0
23.04606688437	5.5299628420167	0
11.120787979718	11.965618495718	0
26.408739718026	5	0
26.508739718026	5	0
26.708739718026	4.8492605261212	0
9.409213376874	13.105992568403	0
30.458635160201	3.8690920654536	0
30.669330384347	4.1196162860905	0
30.364109258215	4.2441307961306	0
28.358739718026	4.8945361133462	0
27.408739718026	5	0
27.508739718026	5	0
25.6875	2.4642195584136	0
25.771866335589	2.1927504712561	0
26.053487503597	2.1539862920131	0
25.384151503975	2.7152844425934	0
25.6875	2.76491822766	0
25.5	3	0
9.2674085862685	13.056656548133	0
27.708739718026	4.8492605261212	0
28.308739718026	5	0
15.382293114753	9.4430428201335	0
29.308739718026	5	0
29.358739718026	4.8343478139176	0
29.408739718026	5	0
1.8061019481889	14.524993056905	0
29.658146185565	4.8343478139176	0
1.7	14.849260526121	0
1.5	15	0
30.090078193556	3.9711909286582	0
15.173827609243	9.6861537977444	0
15.3534828545	9.8036206363886	0
15.178651399276	9.9007492226244	0
18.23069193846	8.0845247930538	0
18.238201865702	8.2009989634992	0
18.11404618869	8.0804750462887	0
4.8	14.888006064741	0
4.9	15	0
16.402471585846	9.2208491189743	0
16.394961658604	9.1043749485289	0
16.489887313458	9.1722848258564	0
6.1791038580454	14.704649136022	0
17.36404458958	8.6866418946778	0
17.451460317192	8.6380776015599	0
3.6	14.810067208388	0
3.7	15	0
3.5	15	0
16.922142161486	8.7148679353872	0
16.4287009421	8.6628888321103	0
17.302858218222	8.1772459009316	0
17.553086212478	8.4091790074343	0
14.056457107991	10.351750732149	0
14.828988488828	10.095006395096	0
5.5	15	0
5.7	14.849260526121	0
21.1875	4.5625	0
20.90625	4.71875	0
20.882087677104	4.3440078187863	0
6.8150329680421	14.202631790528	0
6.4739761191302	14.193291511538	0
15.804771660235	9.3804648697915	0
14.930614384113	9.8661078009702	0
4.3	14.849260526121	0
19.199774869435	7.6667917392027	0
19.112359141823	7.7153560323205	0
19.075619192424	7.5462678219922	0
9.9706052236163	12.250719786823	0
10.035333637832	12.585708215571	0
20.860673694066	6.7440701699633	0
20.773257966454	6.7926344630811	0
9.6856707273838	12.779965388042	0
-0.43250979015094	13.369587523725	0
-0.85662454898514	13.581460773951	0
22.514062591455	5.7048744302785	0
22.375551323725	5.5578993707045	0
20.742913400511	4.047377368749	0
21.292928542093	6.286653279494	0
21.472583787351	6.4041201181382	0
21.297752332127	6.5012487043739	0
24.1875	2.7176993931111	0
23.626112873365	2.548251847651	0
24.1875	2.3788043021908	0
21.958672828761	5.41136391053	0
22.167085818215	5.8010103483154	0
21.673644598829	5.7490312450385	0
20.175558040842	6.9522502138984	0
19.891590763091	7.1618032238144	0
19.899100690332	7.2782773942597	0
19.017433486969	7.647446154993	0
18.878922219239	7.500471095419	0
18.325617593314	8.1524346703813	0
6.2866035579579	13.872661794752	0
6.1724083866651	13.36768415665	0
[...]
CELL_DATA 5846
SCALARS Coverage double 1
LOOKUP_TABLE default
2.408556354453 0.9667159147203 0.79423083436399 2.3159067645896 2.8656793908398 1.373107893026 2.406606421882 0.66281847434031 1.8890809110924 2.8148282313618 2.2709669127018 1.9587906108711 2.3500080240262 2.8322292365079 2.8708488312727 2.8561661069866 2.228261657583 1.9515977060842 2.0221011492481 2.243737437454 2.0222767403612 2.2841350850717 2.851365268828 2.0063487149872 2.4404145356233 2.8747366966699 1.6635746697507 2.2565742871426 2.354238886523 2.6682636123741 2.3423436363431 2.0135192450245 2.0497762232527 2.8998806661324 2.8824272897488 1.0908817896857 2.3859998199669 2.8971653499939 2.9340934923271 2.3134715314115 2.9049496348519 2.0209710146996 1.049373386403 1.033869289484 2.3984114593506 1.9984946817973 2.3465044369757 2.2683648829821 2.0430419082885 2.8543513334886 2.402006889427 1.371344500541 2.0850612806733 2.2771693855806 1.7644309710544 1.7385190290601 2.4113117730252 0.17290582377969 2.1870779281743 2.201429091112 2.7129182208215 1.3955620370349 2.938596940465 2.2831663832358 1.7572351636619 2.1958738974338 2.0116323169601 2.2556145101048 2.1645383292013 2.7352485310063 2.2734675672303 2.708224649609 2.3215782674028 2.3082838487972 2.2100426644906 2.7416480738118 2.4786060450008 2.910832739107 1.9964820873675 2.4445795234427 2.2656612970169 2.0417221360806 2.2471182244661 2.7610224456383 2.4487479547444 2.9212379135685 2.7775887666278 2.7335036247825 2.4453027034223 2.2195239305364 2.7549839506002 2.2143178034587 2.5283995680902 2.227147773943 1.8381384013825 2.0049466132789 1.6194616844992 2.2205886484546 2.8511814071201 2.4098516399458 2.2195880062669 2.0576254217312 2.1366264368175 2.8394217937147 2.2528153168327 2.8883334446551 0.56865663176231 2.1261779739109 2.697114599927 2.9121149215882 1.5371496887814 0.89565656935769 1.7337688240142 2.8535083614458 2.7428037641411 0.28025158997899 2.00418594188 0.59821477900616 2.2231604826574 0.87085938997873 1.7314338943204 2.2217439727402 2.4056862819111 2.1609729628114 2.1377223581944 2.9025821340268 0.47697778900631 2.1630226793922 2.6769709283677 0.49856228404385 0.63219625326389 2.4088052687753 2.3054462551863 2.0983796921642 2.6833750249004 2.0295237403464 2.8715005230964 2.249400190477 1.7001463265359 1.5343711034006 2.1079303197298 0.46714117637207 2.8905932414563 2.2744751766341 2.1582376657641 2.4178239467415 2.2963035520109 2.8005175744933 2.9213345073597 2.8890432028367 2.0545609575527 2.7248479044124 2.8862881170372 2.090972364328 2.1069758485284 2.1043865190701 2.1049711441096 2.4260867156269 2.8345162103626 2.1525956331786 2.363408579672 2.907860920474 2.2972653686886 2.1561671250543 0.98356218055191 1.9145962957198 2.4049217492234 1.8367520642084 2.3516085446577 2.366645725252 2.8310898207563 2.1955006656959 2.8629212309759 2.0968517939816 2.8676965683835 2.8401213468475 2.3329139973153 0.31603388405997 1.9128566571655 0.84634120858407 2.1788792123545 0.6410571521766 1.8073593363209 2.3052748066686 2.8882212453591 2.0651241334871 1.9921841022048 2.9098755061915 2.4122050970849 1.3741330881693 2.3334924013379 2.270615078137 2.8923667564817 2.0434028036491 2.3795843190013 2.3143739236927 1.5945304248357 2.8899977545425 2.3238835518783 2.3776370906228 0.4355151427493 2.272880524314 1.9378176413248 2.4232634538249 2.2405586407226 1.6175133298659 1.4857067079192 2.6908506122822 1.5028667846161 2.6874456723121 2.7077928366461 2.8751082362351 2.3412029031476 1.773258557242 1.9762159954875 2.9175402638943 2.4109835776482 2.4292902558341 2.1225669791801 2.4410420445957 2.2835228970538 2.3615839945797 2.2011095323607 2.3802751411284 2.2126958360994 2.4445543113275 2.2836553342291 2.4287135786829 2.1209140600802 1.822533939587 2.1120459083257 2.2494499563362 2.2642695467578 2.8173100470083 2.8463675446586 2.8576349144491 2.3178501811667 2.1326581384386 1.9414063533214 2.1672912473499 2.0041570733561 1.9785419238012 2.087433880438 2.2242733845259 2.3979983100657 2.3871836628302 2.4377825499337 2.4191823570555 2.2579937070436 2.3232064914639 2.146337418823 2.3475621961541 2.0314161935007 2.3086622431167 1.9591054773847 2.0313827852024 2.0633108932957 2.3612011241666 2.4094703335626 2.2594746126488 1.8751715554487 0.72175414928041 1.9037175475382 2.1556753055265 1.7642125502662 1.9748379035402 2.3292208981978 1.7416996957985 2.130462213578 1.8399825023836 2.4544014503514 2.0271206649825 2.1260960980121 2.459501179901 2.470303299817 1.4487217277099 2.053028047481 2.3905683541206 1.9333459885669 2.0805539180452 2.4125838495203 1.8493335848021 2.122381663723 2.4749187427733 1.1039579283606 1.9336772729618 2.4626777195335 1.8730341941003 1.81703621329 2.1629387230503 0.69987055322551 1.881161177603 2.1960114209613 0.89194818580427 1.9757458553356 2.2520221800227 2.4504627616781 2.174998057459 2.0072367545966 2.3576321755243 2.0566435083818 2.2910246489742 2.3775979822784 2.3389053071083 0.77651620149259 2.1364154993188 2.396329499623 2.3764662956029 2.4080403455463 1.9647424431665 2.2001965263242 2.0296519671881 2.2586473430691 1.9255361953721 1.585832926001 2.2122736979649 2.2410735657308 1.9185768194359 2.1501285362483 2.2396534356885 2.093931600111 2.1776725451763 2.0692569578004 2.0233549637131 2.0390340972853 2.1830688951689 2.2376216992938 2.3401440645367 1.9229582491706 1.5232530696958 2.2418281013111 2.3443300534249 2.164228643746 2.2777601188154 1.3542464822908 1.5481826618647 2.1717734849034 2.2847835607379 2.2369805408502 2.3370310714655 1.8602424908231 0.97339674833768 1.8943260958062 2.3081399783027 2.0447527888981 1.9615588178697 2.0878008035283 2.4209238565739 1.4073054415148 2.0151098986175 2.2258123880006 2.2149160099464 2.3220392678728 2.1090370329079 2.2323497050716 2.1089733685706 2.4403920866383 1.9927961929835 2.087837389279 2.1016247156511 2.0316989232712 2.2245094774541 2.3194758579985 1.8692732256956 2.2152442761313 2.1859821321884 1.4043201668236 2.2168879223363 1.3831432104711 2.2266665518865 2.325915462647 2.1376759558378 2.2525112608542 2.0651767342444 2.1178139416706 1.9218101159304 2.2812305226177 2.1749626465904 2.2356882335131 2.0871009736138 1.9861625980525 2.0822553051613 2.0254946472683 1.4993571311317 2.4311510781234 1.883235079078 2.4416793840412 0.92354874565607 2.1738580583114 2.2651704880124 1.8998801161191 2.2075983286224 2.2524133858904 1.9943162381844 1.5413023279206 2.1076995485921 1.8827140912283 2.1107638310334 1.962705320607 2.0250822666374 2.1888274559374 1.1903720353549 2.2550801629103 1.8470424631092 1.8286066025332 1.1466525871665 1.9903972490105 2.3162593649649 2.2293104998032 2.0697120210684 1.7924378153585 2.153901177667 1.9725215800103 2.2927925120483 1.9589674518747 2.2955662132947 1.9758149693187 2.3059886245716 1.9043512385104 2.2194968924537 1.7882599259767 2.2372481458893 1.9678875400068 2.3087410241433 1.9632038965593 2.2959933989594 1.6274725746006 1.9687330254961 1.6898178371039 2.0181623941076 1.9558691266254 2.2808748017102 1.8653245900778 2.1709377727396 1.880914002096 2.2026319858184 2.2264173393328 2.261916230952 1.9284372870807 2.0167083502249 1.9515180127003 2.3101391054618 2.2726136925427 1.7660763694396 2.2580583745112 1.6794730391847 2.1084355549696 1.8005877395269 1.5133058747369 2.1475719597747 1.7391772493934 2.1147481168649 1.8283709673139 2.1241325487257 2.0659370315663 1.9240155666466 1.8900467102194 2.132732953126 2.0268929466871 2.0413341649628 1.4780901415479 1.8161748041355 1.7955271553158 1.80414044875 1.7746410815544 1.9522915682184 2.3346688104363 2.175295960424 1.8172625039586 1.8432263904527 2.2554223296647 2.0708399900993 1.8888006499471 1.9451372334579 2.3357179696922 2.2080001978489 2.0857346652741 0.99522024537401 1.158100877117 1.1321834283095 1.0178257057473 2.2317608388933 2.1101868586156 1.9417829222663 2.2791185216614 2.1902058159559 2.0269080800241 2.2391370381454 2.0974367157437 2.196880261643 2.0324488864724 1.9594121889328 1.5075004191783 2.0926042667997 1.9493562405098 2.0529462444934 2.0367008519177 2.0073974725527 1.8367833713697 1.9772892021386 1.8814709052264 1.9394570195485 2.2419803324342 2.1354380095482 2.1983807423242 2.2502930970586 2.1241404590884 2.2021078428966 2.1617689472284 2.0620911977437 2.1090865969162 2.1953143410512 1.9247432326795 2.1330950390861 2.2637665776858 2.1068246452818 2.2067747738422 1.9156865550561 1.8491520971394 1.8346805297627 1.9495096814826 1.8932096337116 1.9037035052352 2.2473728621023 2.1631494699915 1.9989074780709 2.2371600979184 2.106047756788 2.1801519440267 2.13365632841 2.0340214856269 2.0615546053363 2.2171976832346 2.1833606698585 1.5791763105245 2.2155897095104 2.0401055916177 2.161160191371 2.2623255875323 2.1091554970502 2.2037586565693 1.9745827719405 1.8770197139175 1.4238448549646 2.2494304092953 2.113300804405 2.1968295523966 2.1461726896999 2.0471497764478 2.0916213390132 2.090373807547 2.0914792810747 2.0359724558634 2.0412209739073 2.0141621900823 1.8500188349853 2.2056098734647 2.0566507675816 2.1526603152937 2.232223134121 2.0678389757932 2.1720035814248 2.231583362288 1.913324112755 2.1636740566549 1.8678842251244 2.0484486026129 1.7347609730449 1.6174131433467 1.6460667612393 1.3134114248674 1.9260381907927 1.9887312548463 1.9319941037917 1.766252895214 2.0271251888852 1.674799129972 2.0697080703868 1.6934087148984 1.4034643714972 1.5402634376274 1.5490590041563 1.8053118110144 1.4281746664491 1.5646196799242 1.7114858643558 1.6142810464523 1.7645031534512 1.521904071729 1.9882071117172 1.4399928145377 1.8253626650392 1.6659195828316 1.8967767239629 1.8805310832769 1.9533268795159 1.8069115578815 0.96928899328029 1.7105825831078 2.0539191446846 1.7046369643108 1.7906413250905 1.6256504105621 1.7412317351546 1.6568109550796 1.9734182026196 1.7288567932812 1.7857042288857 1.3622280295691 1.9813898054198 1.369578443201 1.597597636272 1.5320062647137 1.907435908551 1.9392965551576 1.8998686688822 1.7861940874578 1.8582740646465 1.8323355074925 1.594206513715 1.8974604699407 1.7504652367179 1.9730073139888 1.8102220681191 1.8241534182232 1.5986589623567 1.5607887245518 1.7611580643125 0.90357816555826 1.6163536905018 1.6411452563214 1.7979512562739 1.0742589755728 1.7884440190588 1.1059743640305 1.9852949544129 1.6922891775558 1.3766421515825 1.7328265621417 1.2268033552864 1.3536323137212 0.70847361593849 1.0164800924449 1.344798323305 1.7882003311136 0.49227791226159 1.6569301840329 1.2035206838026 0.9557851540499 0.39753564762884 1.0567975789164 1.2732564028023 0.73940746085622 0.55950254930874 1.4226756041498 1.3941681884449 1.3932550121572 1.9916548432196 1.772178942003 1.6681801787731 1.4736693937762 1.4839256170747 1.78025832712 1.9522612402694 1.3126057284588 1.4772488888008 1.5298678136912 1.7610544038338 1.0736137574545 1.6132289038227 1.7887431100665 0.87195667827824 1.0867138258119 1.2769236117533 1.0145579394207 1.4693583087826 1.7912198739423 0.83521207485256 1.4509271945296 1.6742427300733 1.5755446895149 1.4770211487273 1.82066378296 1.1858724554825 1.010337568284 1.9909913159658 1.4126742515 1.4269669881692 1.4025010796119 1.4387741800808 1.5617485903757 1.6253696872464 1.6495462300272 1.4069398441538 1.3368668586562 1.5950812346065 1.4411102200549 1.5844018114337 1.506398095166 1.5391430529478 1.85118616987 1.4320861913679 1.3888274136791 1.2639763058327 1.1800242643009 1.616877188212 1.4288303060428 1.5527922134323 1.7405197454887 1.8961686552145 1.4229916060753 1.0328822866297 1.3365632349182 1.288727814963 1.0704016292741 1.4304805540553 0.98633173045294 1.6887897445833 1.0465472161474 1.6036402799836 1.5081629176097 1.9550487318644 1.6965793486882 1.0386685441233 1.8208268710855 1.6927609612177 1.5220759140372 0.36768593134002 0.57157705740073 1.3900389173835 0.94056856216628 1.4749452197783 1.0483764223174 1.4050518912713 1.5578284702539 1.909475401281 0.93921996104591 1.4607753515245 1.1919928182653 1.2003436722349 1.4670763040868 1.4228529576968 1.4005114389368 1.3587940247908 1.494338636455 1.3886413798218 1.5031143215647 1.142397633935 1.2563266592451 1.2342722278322 1.4593312574083 1.4871694890411 1.3065568416809 1.636344368846 1.4646919372543 1.3948204177694 1.5746781180897 1.3932427224856 1.537407816105 1.2476981827195 1.6156986008243 1.4734619665727 1.6227149873108 1.423788724894 1.4856748691655 1.6120679099647 1.3370147013519 2.0135171371535 1.4756874945669 0.97307176240928 1.4586500720548 1.4092455094032 1.6937166468661 1.2420424697191 1.0170949655433 1.1653954065708 0.89911481088844 1.8143461793672 1.09454439457 0.9990258712584 1.4475825669909 1.4207926545161 1.4429619447157 1.8795635607611 1.5511657479457 1.656899240709 1.4266198467018 2.0192975028591 1.8138095283353 1.4398171446045 1.407412255955 1.442538397164 1.0916695212744 1.4449560110096 1.4998754481847 1.5499435758016 1.4460163662327 1.4420920045354 1.4936754191209 1.6697459910773 1.8794967103061 1.4497580528184 1.4102929143936 1.4799821267112 1.4728645465722 1.7376891182366 1.7049571009688 1.2668896307239 1.6138397752163 1.4919142367717 1.2803529491281 1.2437876516884 1.2151651131324 1.1747507250375 1.2446945632746 1.5049228605234 1.4643027945858 1.5039170507224 1.4941595429616 1.0376817790944 0.88670830099228 0.97121868274892 0.95803698296867 1.3701493005728 1.0070022382492 1.3042332347747 1.3340701960614 1.2676444357096 1.4612442508696 1.2729105695943 1.2051078391626 1.1593813771932 1.2206002747522 1.237000808662 0.75681519905 1.1829959748571 1.061923119365 1.2837463371144 1.3748558371047 1.083106984782 0.71098245131427 1.1370532955585 1.2032470310407 1.0842557978701 1.0515718861755 0.90835509447945 0.91272351615975 1.0363605708559 0.78589196892069 0.88705204416532 1.4485722659322 1.2581486230676 1.127107431429 1.4313772280425 0.79036899644602 0.98277762700017 1.0383611772601 0.83072327304829 0.88523623846317 0.89211891499706 0.81568422844326 0.73213277961899 1.0450544979315 0.9319162366508 0.99572834698232 1.514245617103 1.1537907266806 1.6598219076853 0.69627921766278 1.7071996108848 1.3706497489402 1.1202727880265 1.0566217871347 1.6415990727706 1.4952903651774 1.4274092689459 1.5412819595956 0.52622014603066 0.73731370060067 1.442017468656 1.6337655728941 1.6448185202379 1.3968154955063 1.0094682853271 1.3986238098817 1.8258731412799 1.5599984829779 1.6829012597598 1.4062421130393 1.4423915234572 1.4020376762576 1.4300816358506 1.3628661749542 1.0351932498693 0.82566585748709 1.4521757863784 1.8943934079719 1.4977493908336 1.486333505251 1.446828124984 1.1605826245459 0.5316904660856 1.199585359275 1.4148321077967 1.3949797906465 1.4945744833868 0.91719307832242 1.4725547292403 1.4484183768929 1.466507435689 1.4286642875603 1.3942212026563 1.4418130700704 1.423516059435 1.439471338123 1.45516649856 1.4482871757405 1.4100453037141 0.6853988953735 1.4479664517208 1.415606153136 1.4418527988774 1.4344177388533 1.4507384840446 0.94704864776278 1.4492329350407 1.4341810370074 1.4508549257444 1.4324269244911 1.4627325714219 1.4304503560227 1.4593198422709 1.0143692380798 1.4068162537505 1.4011316467917 1.4052488669721 1.4364189709135 0.81412079647572 0.94209888088282 1.4514536090001 1.4579575719969 0.9762481407041 1.0250654884529 0.97412743286232 0.91297898126289 1.4285954327001 1.4055581576726 1.4501712520788 1.4679409222403 1.4164706241096 1.5052042702724 1.0244840240118 1.4274280004236 1.6311168859367 1.558637049443 1.4936201436776 0.98707902610304 1.4838675837445 1.4587639869681 1.4821835326654 1.4258373900245 0.91234815965619 0.90699593996694 0.92488346866603 0.99327012096395 0.86638371213448 1.0374098207087 0.85460730926063 0.91635775872069 0.85817050348888 0.82159921065951 0.90846549336011 0.94261623253496 0.82555069781712 0.81446970666152 0.89167410490217 0.98171981478712 0.8588824017229 0.86495263630609 0.78343441920934 0.70459005049829 0.83446335275721 0.85762346304995 0.74481021338177 0.74607786390802 0.83467819917923 0.9360225383342 0.86916614490646 0.84188782418816 0.93393546735939 0.81239883359204 0.81877529507071 1.0584692067787 0.81996700757186 0.80144503821569 0.78473604849677 0.9519672256265 0.69488479085966 0.80465681731909 0.74588343411299 0.75427560062587 1.0554032297035 1.4913423065251 0.85457899500757 0.74630177459778 0.66968160133503 0.70509496858355 0.7923406021524 0.73162946254581 0.71675593736292 0.73172753950734 0.66750434984729 1.0143765544017 0.6597839046574 0.59598362317388 0.76324181327456 0.70456429000325 0.86370111391866 1.0393071576843 0.87511194100067 0.85022752053703 0.7757445493551 0.70007978611338 0.69807386589052 0.72184678909863 0.66311193052687 0.69606865630231 0.71491808482011 0.64699384866091 0.7832627212054 0.72400515992728 0.63519256104317 0.56036779987744 0.93868213295713 0.7568105506872 0.64613889411778 0.75920783390169 0.99278481090742 0.99487429056937 0.94894732859911 0.81060238376404 0.63314609567099 0.692542285754 0.91236477112601 0.82205795817357 0.91043958712533 0.97009834977203 0.84383102547839 0.74958815752153 0.95032728067658 0.8766539123174 0.9191425369896 0.80933656479283 1.4107583592973 1.4062347092281 0.5971720905967 1.0621738882975 0.5607874229124 1.0722422794614 1.0767378888243 0.58377790894696 1.0482001054435 0.84254560693734 1.0544549822183 0.95109049743324 1.001777656838 0.8231186979827 1.106343680222 0.99537752598965 0.99440978954958 0.92883761819372 1.0016492235411 0.6259876348833 1.088520448198 1.0830908915986 0.56117368002691 0.66641178449086 0.93890177469236 0.94051466941293 1.2250913231733 1.1174079063284 1.1178691024337 1.0442654077469 0.68950275034526 0.61735752035565 1.0683231970427 0.60469067628751 0.59269903696913 0.70295737821288 1.0869673760731 1.0859684715289 1.1454533316551 1.1464210769659 1.1563215829852 0.82157449341428 1.1789211775141 1.0673377590173 1.1295115120811 0.56324372429 0.58390150168177 0.64892954988351 0.64508356829843 0.54634817384263 1.042942706304 0.6722007125722 0.68163274314155 0.53053376035875 0.50202614396254 0.53790716879432 0.5190889970476 0.63282674194646 0.5240854084119 0.52338274271341 0.44933057891053 0.55512250972237 0.49875897361021 0.55150774536689 0.4288194091967 0.58451069563749 0.50255468853655 0.53530788966226 0.55349586618626 0.4794895368896 0.38556681118482 0.53309075211715 0.46863141285241 0.59321911809686 0.46576918057261 0.39235977547791 0.52139698440253 0.62598536176943 0.44474295991305 0.49244302155542 0.58502413694261 0.69995593695173 0.41163839957858 0.31881905543323 0.50572740849244 0.61736128973752 0.58145569368445 1.256206473175 0.75628408453548 0.77382297354072 0.47955904486162 0.36324691596289 0.45836169403816 0.44616554729679 1.4627768769376 0.49805205183046 0.4498749224706 0.2702579565764 0.43500828426987 0.45826317267504 0.58452783590114 0.38720743984152 0.39038429314446 0.5090122662691 0.36309858343028 0.6380858939058 0.53758501269457 0.62133977925151 0.50336557335487 0.61530632156098 0.39687678282623 0.32858988274823 0.39189977098432 0.5443524102016 0.45359072482188 0.41653885852314 -0.17041919123417 0.42855394071075 0.32065681448897 0.30549019848898 -0.11995937863176 0.19238491025514 1.035647336978 0.82627576473607 0.61175467427655 0.85194321312306 0.54392510400103 0.6920847073952 0.62174130269451 0.80072583368251 1.1807918092576 1.2369614964784 1.6510361344514 1.4942953327616 1.4925983093263 1.00881360222 1.495385289127 1.459546248756 1.4706101131468 1.0676104066663 0.95296156472882 0.98716558794804 0.95846432973251 1.0447398137402 1.4259358690942 1.4563529223866 1.4308907956669 1.4290529999084 1.043740711821 0.83855414297726 0.94844185217899 0.99401617557746 0.89549535653403 0.90293187557684 0.75717088189084 0.76101754561554 0.87335381196266 0.97098373964952 0.80120190405916 0.91273391091206 0.90759826140873 0.86766406994644 0.76484905249975 0.79963447027789 0.82804836091553 0.7275251519688 0.80647589172456 0.78683096319181 0.68483215498419 0.67958356610161 0.85429854255085 0.7667306112684 0.63107556153026 0.69820310958367 0.6965439473273 0.73908983538938 0.65501709550243 0.56437987445275 0.65596302704253 0.65052531008664 0.69837357764718 0.56398588039998 0.63256943943933 0.64348606705761 0.574703254826