# vtk DataFile Version 3.0
d-2__ created by libgimli-v1.5.0-1-g5991b6ac
ASCII
DATASET UNSTRUCTURED_GRID
POINTS 3503 double
375.1578521782	-10.539151806402	0
374.30878561874	-11.333149474909	0
375.3080427115	-11.55073527979	0
353.15258822552	-10.422449633894	0
354.18292561154	-11.057857317938	0
354.09071294025	-10.152986335986	0
314.51658123431	-21.368484601131	0
314.96475377565	-20.187401839325	0
314.09486661769	-19.791134994325	0
335.06063641948	-18.727786604686	0
333.91590926067	-19.498034653476	0
334.91220138096	-19.749030751392	0
312.87716728938	-15.00604677148	0
313.69828752852	-15.580536085108	0
313.98359442208	-14.619871526021	0
341.70988577375	-28.660260789144	0
342	-30	0
343	-29.123588643481	0
348.7531633215	-17.546589094766	0
347.86234665953	-16.451218929466	0
347.86425349804	-17.846833147372	0
375.15001567568	-2.6543707282398	0
375.08920457871	-4.3757358784135	0
376.22037756121	-4.0797248193676	0
331.24701524002	-29.00972685821	0
331.5383179196	-27.800276696779	0
330.46657948895	-28.04094051305	0
337.48803825856	-27.051366115864	0
338.32343370468	-27.334799680269	0
338.02796277779	-26.445571565557	0
357.20605079121	-14.709569472276	0
357.85756660241	-13.654967184957	0
356.78162696934	-13.544870688863	0
328.54735744887	-23.256550472402	0
327.77170479073	-22.704596806248	0
327.40759358459	-23.530845980281	0
346.62961148435	-22.534259875623	0
345.7207320123	-21.54193898275	0
345.78582542797	-22.39470673296	0
347.28490189136	-26.096656943139	0
346.55078637646	-26.971375159464	0
347.59285754109	-27.19630273383	0
333.01506724416	-16.343217962281	0
333.95176015367	-16.823038042938	0
334.02850253057	-15.519019049605	0
341.11027567368	-27.864123774538	0
341.93773697254	-27.308539202209	0
348.23976421434	-26.422192246908	0
348.23606287066	-25.506374143487	0
340.7815083627	-22.561631757902	0
339.95527348683	-23.411233939364	0
341.08560404588	-23.767381049592	0
328.20142864825	-19.8594185078	0
327.41468444396	-20.437670481708	0
328.6128679825	-20.679263753271	0
344.63906255701	-27.131301422613	0
344.91507157142	-25.969027191901	0
343.75330397773	-26.247161011632	0
342.60533908547	-26.367001824738	0
341.59001971585	-26.354536308704	0
342.77127924898	-28.039077133929	0
343.87641950859	-28.123595788103	0
342.98714802434	-24.466235767669	0
343.99938007848	-23.757278462125	0
342.82766487631	-23.364445574604	0
343.3902395715	-27.213238459131	0
344	-30	0
344.47000762137	-29.026773541979	0
345.4283684451	-28.527152251101	0
345.03125	-30	0
342.10804674891	-25.516345982921	0
343.09257647957	-25.476143512093	0
340.2340649423	-27.389127803649	0
341	-30	0
345.56872553926	-26.738162001498	0
346.41565706211	-25.356068680999	0
344.65932317038	-24.802127402381	0
341.28276686316	-24.825461740858	0
340.76171399362	-25.767221706505	0
340.5	-28.8771229825	0
340	-30	0
341.86534410235	-23.171226400586	0
342.02816341031	-24.13915449407	0
345.86814224652	-27.661654107097	0
346.75696928487	-27.857963937904	0
339.71109539013	-24.570917083129	0
339	-30	0
339.5	-29.104597936777	0
347.09375	-30	0
348.125	-30	0
347.94100745271	-28.986442887947	0
346.11461824861	-29.104624705985	0
338.99376444428	-23.814330701581	0
339.11289562393	-25.324175349654	0
339.80007322831	-26.056412468667	0
338.16751139807	-28.66810303358	0
346.93840036055	-28.74994701989	0
348.27804492159	-28.013017481755	0
345.67470620743	-24.64403880213	0
338.21670176545	-24.974779378868	0
338.25762748325	-25.727537191637	0
342.51081497097	-22.449493860525	0
341.77753932575	-21.8171669437	0
346.00484330547	-23.221435925561	0
345.08565052908	-23.802012599889	0
343.52096580134	-22.493405775632	0
343.07764533576	-21.050837360621	0
339.03989993998	-20.139486053589	0
338.05817368029	-21.216453195392	0
339.57790204509	-20.912859002522	0
347.59468273575	-24.852640236576	0
339.75341858333	-22.388374595877	0
340.49294446791	-21.137022665224	0
339.32785194185	-27.993107166835	0
339.44621372508	-26.908666170907	0
349.32293879219	-28.919860490172	0
350.1875	-30	0
350.38733685352	-28.953973165014	0
346.67900715046	-24.340483727014	0
349.2451130525	-26.505912038336	0
344.79971102888	-22.731845314405	0
350.48339173151	-25.804360955916	0
349.06582591228	-25.67780995318	0
346.99172996874	-23.389488736344	0
348.23524534544	-24.087130531198	0
348.87668944105	-24.851901763769	0
349.83477727934	-25.067106214402	0
339.00599169901	-21.661504806153	0
338.68805901562	-22.736146736974	0
341.6699128258	-20.396834493094	0
343.00311025676	-20.002223728293	0
337.64588799407	-22.601008203293	0
337.97354771478	-23.599518077485	0
336.5696025807	-22.61171969468	0
344.01022177956	-20.303674235911	0
340.54565406524	-19.914996930877	0
337.10364236907	-24.462448472632	0
336.20853425439	-23.62568946289	0
342.68199931048	-17.840113055478	0
341.22406946366	-18.187754786985	0
342.34580285034	-19.1818012753	0
335.14053768741	-22.674110553206	0
337.12375843727	-21.688997464684	0
336.33717320029	-25.697849369013	0
336.05041231577	-24.691980125629	0
335.82963242213	-22.06026340325	0
334.93358930147	-23.981495255923	0
334.09073184732	-23.178006286527	0
336.33951510241	-21.088377353552	0
334.06417241352	-21.777153276644	0
332.94057652017	-22.995946034449	0
336	-30	0
338	-30	0
337	-29.19774860681	0
348.74329295316	-23.420805856725	0
348.6792793684	-22.585339995972	0
347.95812535801	-23.128209221327	0
350.3501812348	-24.197671888416	0
349.45939240383	-27.707232445869	0
351.734375	-29.144248289179	0
352.84882294577	-27.889530040813	0
351.21875	-28.288496578358	0
351.34132639573	-24.395632880694	0
351.20928807154	-27.311279310884	0
351.88182217129	-26.602236998598	0
349.21517795501	-16.794133156697	0
350.32058079816	-17.10394245671	0
350.10490030143	-16.258997873637	0
345.48526666967	-19.459093843261	0
345.58821240599	-18.247993180035	0
344.35288139517	-19.158887816403	0
346.65649586073	-19.484436504778	0
346.25126390996	-20.541681308597	0
347.61936264003	-20.459777442039	0
338.81243336677	-26.237938671526	0
337.25429811215	-26.200727719844	0
337.48612896069	-25.391990373751	0
344.3789271865	-21.440339481862	0
347.84391578498	-19.275149678956	0
347.09871655868	-18.52029622732	0
337.60176175697	-27.926173010404	0
336.67505358025	-27.817799716283	0
347.86829711434	-22.189009469588	0
348.66449579864	-21.682814900134	0
347.05594685479	-21.709163303783	0
345.11942480936	-20.572008845279	0
349.70082943376	-23.423140079513	0
335.314284051	-25.479440285085	0
334.5	-28.976922582051	0
334.33986495096	-27.849516635116	0
333.34910807472	-27.740283311285	0
336.53572602175	-26.855611412651	0
335.54331808192	-26.911276082219	0
335.81738102898	-28.747995168995	0
333.93056661948	-24.189841038622	0
334.26590313415	-25.217182746704	0
335.33231591928	-27.881566878836	0
343.34799546399	-19.052385492896	0
347.86639712078	-21.306749084285	0
332.44066622941	-25.866570505767	0
331.52450997757	-25.650873015122	0
331.75543805194	-26.723521764444	0
332.96839617983	-23.980280207154	0
331.88423136108	-24.781121204831	0
333.22370725625	-24.931334333518	0
334.54274587168	-26.337090073084	0
348.37824841791	-19.954693469505	0
348.97717262232	-19.284064923524	0
343.87964211248	-16.305048663342	0
344.02122269338	-17.494228580989	0
344.5770577457	-16.833546828862	0
335.36702793844	-21.261729140618	0
334.35728045579	-20.613703982693	0
332.76716750013	-20.831752502658	0
331.97935942445	-22.7427623764	0
331.37603452391	-23.532723979393	0
330.45030150643	-23.147364895966	0
329.85375531869	-23.953352419898	0
329.62823670155	-24.971853382768	0
330.72649853393	-24.524773576581	0
333.28642636179	-26.745495841665	0
334	-30	0
332.89841818658	-28.629333215161	0
333	-30	0
335	-30	0
351.1273795905	-22.886616896716	0
349.71557672976	-13.62730617622	0
349.79927624224	-15.266743088145	0
350.74835931206	-13.720487022207	0
348.5970701767	-20.790999731451	0
344.3667220018	-18.290761620276	0
343.49995917222	-18.193526018748	0
339.89448278604	-18.879573750623	0
341.31155237406	-19.218968735785	0
344.92337033645	-17.624445414311	0
336.05068363238	-18.436618124115	0
335.86757826531	-19.371073030239	0
336.74969929197	-19.083232889388	0
331.77701714214	-20.558836602387	0
332.59541827209	-19.522254411682	0
331.6194112034	-19.298349428515	0
337.5749989037	-20.287490296183	0
337.55751687101	-18.626702264589	0
337.34493491814	-17.714790994284	0
329.46044245548	-22.987170320251	0
328.98001713547	-24.018429056599	0
330.77827746474	-26.224462347356	0
343.0048142347	-16.324415146777	0
336.62798969546	-20.003111265311	0
335.69751075461	-20.337636024226	0
332.70858064783	-21.925490941256	0
331.53111948511	-21.855563849241	0
329.84415997071	-25.927850793118	0
328.95499476284	-21.890591080509	0
328.62855296423	-24.954454290973	0
332.51290758714	-27.293603906812	0
330.15948975148	-21.806002538944	0
330.045090233	-26.914273864359	0
329.14845038392	-27.891882928412	0
330.87360921817	-21.047441701583	0
349.92047092515	-22.113625364204	0
350.84628384118	-15.532137452466	0
351.40174782903	-16.840228582855	0
346.91459909339	-17.475678412379	0
345.43954356407	-16.873185144727	0
341.9604159402	-16.112852819254	0
342.40979727961	-15.146631919165	0
343.76785714286	-14.975595238095	0
343.22758013134	-14.111040438175	0
336.09704691682	-15.119919281858	0
337.27778470988	-15.464703559456	0
336.71577863016	-14.370552244331	0
329.10049411687	-26.566219812261	0
330	-30	0
332	-30	0
329.50754699687	-20.476833484984	0
330.91122877749	-20.006304858785	0
329.51848443013	-19.265692592857	0
327.66598256562	-19.008729177056	0
326.46803021755	-20.198531267227	0
348.70195976579	-18.428079682461	0
346.71599330899	-16.341324629915	0
344.64764407248	-15.885677865779	0
344.98160547133	-14.682542506669	0
349.63137339717	-17.638210725982	0
348.78697584748	-15.643448532263	0
339.37208021104	-18.143939206744	0
338.6395644571	-19.049087909466	0
344.16260929477	-13.950514570436	0
335.32141449427	-15.70538852538	0
340.06553628742	-11.539787515711	0
340.81850540584	-12.101186450115	0
340.38375806882	-10.656121201605	0
333.90555425581	-18.246885988841	0
334.82969977222	-17.403419764475	0
336.42152784049	-17.559573016758	0
[...]
CELL_DATA 6713
SCALARS Coverage double 1
LOOKUP_TABLE default
0.20135836182501 0.25000672758517 -0.40385038032363 -0.32399885883068 -0.1659995528657 -0.62613525801331 -0.23797432678558 0.55250752360441 -0.64119894345492 -0.56644397154151 -0.069601170131311 -0.47205607797544 -0.37660224494846 -0.54180808939275 -0.22339439415696 -0.58692404635764 -0.51929257652575 -0.42388888345377 -0.36682785369762 -0.53324449202699 -0.54606768635744 -0.59966838223559 -0.44348588530329 -0.57170270411401 -0.62819758963644 -0.60324174209835 -0.54375768940321 -0.6031631923877 -0.63486355673766 -0.62238515557604 -0.54899987194025 -0.48539121965352 -0.56441223206225 -0.63408278963496 -0.57544097788239 -0.58483317300239 -0.5699598366212 -0.54076219502278 -0.5784049147848 -0.51938104873457 -0.48058015319487 -0.51548614144578 -0.49812747891858 -0.64137624615846 -0.50177299996054 -0.52018830783686 -0.43570686587981 -0.57936721665745 -0.55535378469365 -0.56535537653372 -0.51423124791089 -0.5416839382588 -0.47965943249982 -0.52050224657077 -0.49569489017521 -0.64732144407298 -0.60292244113893 -0.62924915449101 -0.63769270013657 -0.63904386644746 -0.50056747662385 -0.59444054645356 -0.53512201327358 -0.43833893383078 -0.45847548170709 -0.55865269479791 -0.59603662699258 -0.50502279997997 -0.63914188278987 -0.59506004745985 -0.48992079140225 -0.47685206582486 -0.46618699468722 -0.44497383846718 -0.46336518485788 -0.42296038137158 -0.513992353553 -0.45561851733429 -0.39599370745567 -0.44190857525455 -0.41460964430157 -0.3710858160383 -0.34565171580652 -0.40909325268173 -0.39706326808232 -0.40580265304196 -0.37109868478659 -0.48601688681963 -0.45480163380705 -0.49960324049521 -0.3729045359376 -0.59737635467731 -0.57884319095486 -0.50605596625298 -0.55297092286252 -0.52462390893246 -0.6020873785772 -0.55668754021439 -0.56612848150432 -0.59709780423674 -0.60621344066587 -0.63726573560618 -0.52312938846346 -0.57304857402974 -0.60859015183428 -0.47470530704126 -0.55816146041741 -0.42205422887557 -0.52618360871831 -0.44378572476275 -0.54124710502327 -0.52678362611427 -0.5610085207235 -0.51830128181808 -0.4970746766636 -0.49865007625356 -0.41387150488957 -0.45295754659613 -0.41590433572237 -0.39570721390193 -0.38124601254726 -0.32520911755586 -0.43494145373021 -0.43628699172018 -0.37703169035749 -0.43627386654149 -0.41782708748309 -0.47621971529008 -0.32316187664435 -0.33071236329799 -0.39751140635303 -0.43798500924515 -0.47469972458807 -0.48078345911502 -0.2647386917549 -0.44641770613225 -0.39138360419224 -0.40980303783605 -0.44628294700558 -0.51302418853026 -0.33258227793009 -0.42140552232667 -0.46143522945371 -0.39338272442398 -0.43885491999208 -0.65578053760406 -0.41575247510309 -0.48910320807713 -0.4908226643839 -0.50054588402252 -0.56675127976724 -0.62175352195318 -0.49129115899958 -0.50290073885531 -0.55642539963271 -0.47957629634801 -0.21975802226854 -0.27740555940902 -0.31410609789836 -0.43714410421055 -0.52499651654808 -0.48252752675469 -0.54646907708246 -0.54515411939092 -0.5586724979831 -0.57809560696882 -0.54257246027154 -0.64315611942465 -0.48552864135006 -0.5319964487985 -0.41004112510504 -0.37860263699668 -0.45528083986147 -0.41937912559242 -0.49067723285709 -0.47586071843622 -0.46660246903218 -0.44330999183346 -0.28494811199989 -0.36668857228605 -0.4849079384819 -0.60152057107593 -0.59907855687004 -0.59042934503494 -0.40110503457162 -0.3353822925843 -0.46429916412139 -0.40040685057571 -0.38452947108971 -0.37464107228981 -0.41432762847573 -0.37643926835228 -0.30468330004419 -0.34777607895246 -0.37704872217662 -0.39958706117251 -0.45324648635895 -0.43317859286703 -0.50887572094031 -0.62822737202284 -0.61622994348928 -0.64643073305955 -0.61520190240189 -0.55835074302003 -0.58423836754998 -0.62059630650226 -0.62419433714036 -0.33493381236638 -0.30733286991166 -0.45927849263822 -0.52060279365704 -0.43519923451355 -0.47728440815039 -0.55292171880679 -0.5344646679276 -0.5075775246836 -0.64921704803557 -0.5865147996069 -0.61784471315708 -0.56022136420298 -0.56314199597955 -0.53966557357034 -0.55960768168767 -0.52699073386708 -0.51618439017861 -0.50602345152648 -0.51113567998642 -0.55320441497701 -0.5848143518594 -0.59462635035904 -0.51050303346536 -0.34291320381795 -0.29829750404009 -0.36951933319003 -0.36874374764069 -0.56873117826173 -0.51162935402942 -0.33942465061791 -0.58691111926362 -0.31245582814514 -0.34722257184594 -0.34340039614954 -0.30075101093065 -0.21880162907344 -0.292287931984 -0.26801365714982 -0.4112111900354 -0.4804945183501 -0.38629238419111 -0.38829841013682 -0.50818502593125 -0.55678988635014 -0.47314506424482 -0.51370226028902 -0.47204805528302 -0.5020700417141 -0.46694149856306 -0.51849080233521 -0.49977273892075 -0.55321034803297 -0.55033372699405 -0.54526167677693 -0.53916811152032 -0.62622260361642 -0.55523556846833 -0.58813091866201 -0.66825802578859 -0.65758931755552 -0.44197208108281 -0.089397190132596 -0.30582861752075 -0.32514064922627 -0.29410177162868 -0.30307957207644 -0.27217771049095 -0.26388370738263 -0.27622961049449 -0.35016540753455 -0.27635870886246 -0.233157802868 -0.30679900473268 -0.35068438231599 -0.37267123939861 -0.28649786219408 -0.48386095194429 -0.51600098830358 -0.54633021296886 -0.54216359646058 -0.34175765382418 -0.66013318832127 -0.27157521007153 -0.22976900745355 -0.34866681176511 -0.32417501864195 -0.29481020346091 -0.35097108026849 -0.43322954995932 -0.49364046592444 -0.54554190364123 -0.45187989037213 -0.52056226217749 -0.54781830962094 -0.60356972490758 -0.4920069193837 -0.48398953758568 -0.46992893519457 -0.4435411645946 -0.44160536596565 -0.61847823443319 -0.40201811611775 -0.44729335010671 -0.39771706592405 -0.40906545073074 -0.66678382071636 -0.62790489956419 -0.65415763582534 -0.60166271437924 -0.58034016543353 -0.41218816384016 -0.20234634901102 -0.25423918489652 -0.24047468933184 -0.30181026145067 -0.3035481600209 -0.18727002614077 -0.13133490789232 -0.33850498515057 -0.15594418666189 -0.5345354917654 -0.56889046005754 -0.59508804798105 -0.59914356498171 -0.56920954581744 -0.67856521977781 -0.35624898564504 -0.36016592324308 -0.35554184788421 -0.40020293070862 -0.39783131530714 -0.34944023618707 -0.27185882846033 -0.25663423950008 -0.28425269125638 -0.23646804762779 -0.22210076531213 -0.25340370708521 -0.15151050466773 -0.25402470075825 -0.20391697153955 -0.21772164665174 -0.31505033271989 -0.34935455914806 -0.37032667417089 -0.30738382745073 -0.36941356952032 -0.35473139444978 -0.39525164503246 -0.36515905456097 -0.27950309829063 -0.33682095065311 -0.35825910021375 -0.31768211062358 -0.11605437354801 -0.21188522479381 -0.32697468375414 -0.28960453119398 0.16008571284706 -0.31136898346123 -0.27455375358682 -0.3210736526016 -0.25051714451201 -0.27640571625661 -0.28771581833925 -0.28793170298447 -0.39561761966931 -0.3739122033887 -0.35352112393939 -0.37679875116359 -0.34037217600794 -0.33849506137537 -0.31067703802257 -0.32159352778628 -0.40289594120308 -0.43093197158937 -0.14783412496295 -0.033082789909697 -0.1912538796414 -0.17411316996534 -0.26903017577107 -0.31600881068586 -0.30372380217066 -0.35265186242426 -0.29127408874063 -0.25853677347438 -0.31878544686066 -0.3199350702468 -0.25579917131314 -0.35110288949341 -0.38837517913732 -0.42841490091114 -0.17849371521884 -0.12762758491363 -0.17705440628039 -0.19949951182178 -0.13062807371204 -0.13749151474224 -0.1913911917327 -0.22533761240731 -0.24782196724053 -0.3032648519951 -0.32403277223022 -0.28968306438449 -0.2688312576087 -0.25194638112509 -0.24142985359668 -0.21659643469626 -0.1612925284745 -0.23402356343458 -0.04947289793584 -0.20174198914303 -0.17848047935341 -0.283681570689 -0.41326801448338 -0.30901180973439 -0.30951078399555 -0.32920774549674 -0.17591641944264 0.16960532030047 -0.16163475764328 -0.1869278082767 -0.24543320592215 -0.24044906653507 -0.20876817139655 -0.20141273362257 -0.25076142063891 -0.26711407447775 -0.17868429595579 -0.21303595302684 -0.2459436459525 -0.26001550058531 -0.2788143759765 -0.25935901086967 -0.15372859515123 -0.26976281942762 -0.2447820947533 -0.26682197081532 -0.16147655152526 -0.18825269623974 -0.29283408756435 -0.28452354066984 -0.30790774699408 -0.33357145074366 -0.2515755374967 -0.28339360575194 -0.098921058549511 0.020736356004392 -0.20012294401349 -0.13479860039081 -0.26409788794952 -0.234043198629 0.015847111042032 0.18572612917538 -0.38574691987461 -0.29507224863514 -0.30269787725718 0.19649798499963 -0.064671682600873 -0.081289407433557 -0.1956953250066 -0.015280167640166 -0.29055562282455 -0.31817199915394 -0.25231996811775 -0.35440231463352 -0.2242360032756 -0.23327235490031 -0.13740748289392 -0.1108334850968 -0.12757859979463 -0.06440996646413 -0.092065242023675 -0.029719622820179 -0.16977756554796 -0.06743902638482 -0.084922249423224 -0.12415413174399 -0.21977666929592 -0.19711472194248 -0.25537474384577 -0.18959511537689 -0.24059732316634 -0.16673719633087 -0.093889559733061 0.34943228584481 0.025222193430115 -0.0052958940122916 0.2562486802311 -0.15038530336141 0.27728181665554 -0.182496177399 -0.1157692010294 -0.19007513463231 -0.046401181786064 -0.21686566943442 -0.053983087691365 -0.10359042771019 0.31042943513251 -0.14205983350562 -0.22690109906208 -0.23611494466037 0.1052191460808 0.22730119143449 -0.15632236971507 -0.27105340646262 -0.22971196843058 -0.25666825304704 -0.25317697271119 -0.24287603332201 -0.11889136307799 0.10231451075104 0.066028250249954 -0.15387069047498 -0.0074095982523812 0.018387900211785 -0.085533111886114 -0.028008542633792 -0.054507977629815 -0.040598047058314 0.26335275341687 -0.13733145276092 -0.20469986605326 -0.19537158283813 -0.30266217043052 -0.26751796189031 -0.31012474805853 -0.31749452887495 0.23464333047028 0.17668698243933 0.26664051265916 0.40944291418778 0.17321035694301 -0.0055417417153233 0.15295464249503 0.35944502438173 0.24493490893883 0.094025192685643 0.13896991413566 0.17919878251418 0.040198436447169 0.085736137616663 0.16259137340779 0.27177363425922 0.35829777644338 0.31753788038511 0.40779045362799 0.31768423695088 0.43215456391825 -0.20970849069781 0.4695476005963 -0.12487184300875 -0.077532412007966 -0.05754149030891 -0.095348311156058 0.080932491395562 0.24151199660028 0.036180050348301 0.34481634829095 0.37364937012651 -0.10687232972008 -0.027925978957005 -0.14089816005022 -0.083322602014015 0.07746823770067 0.1153426651523 -0.10642888842034 -0.06689483738225 0.072760136208367 -0.019044724176826 0.053052817007878 0.047482135168941 -0.024887505729094 0.0036835879152956 -0.029367740025085 0.095020870804411 0.078294233214372 0.033195522342526 -0.16565822219972 0.022991510839235 0.098063898030042 0.21806469139661 0.10109673835315 0.20730250547798 -0.19035330589034 -0.24836393930514 -0.074400865859707 -0.051319215298723 -0.25373462469005 -0.26732127723405 -0.20375126678635 -0.1247892924123 -0.23079000196427 -0.27939233210271 -0.23633562521516 -0.26564769796541 -0.30443870847839 -0.28560722227324 -0.15542213880681 -0.25626139862653 -0.30715971698593 -0.34522405436129 -0.2686334758149 -0.28723287982959 -0.342309486479 -0.3400400983066 -0.17806869242257 -0.1385718615001 -0.2048949578001 -0.13771283002857 -0.11359642520918 -0.043527818440511 -0.018755900510112 -0.20802544428539 -0.17035378780766 -0.43811842324639 -0.28945495942581 -0.31286980129607 -0.059349350609628 -0.011052050099283 0.13667710996375 0.21393179553269 0.36024419946634 0.10217046667375 -0.27324380103586 -0.49458589619955 -0.0069083405302053 0.1024267400161 -0.19988807599642 -0.066578713382582 0.3656424255081 0.45840355389523 0.21038986278769 0.38617461935315 0.21228316223743 0.076107743089002 0.20602609642156 0.28151707651938 0.41245463556843 0.11654786401356 0.14380358047006 -0.067396388930146 0.1891363737992 0.011296184892988 0.3166478986375 -0.061043879731557 0.44976392831553 0.35278374627423 -0.16572437522616 -0.06076850668982 -0.24274843615377 -0.19915119373268 0.039904796574301 -0.046482550837036 0.30442985944683 0.39164647157376 0.18878933909184 0.33841379885342 0.4100335905508 0.40316965064927 0.16125274442285 0.17019995828929 0.24723144468845 0.43483944840971 0.091313950442666 0.11612821701677 0.19353421153526 0.38822596566961 0.0099152673730206 0.11957799101857 0.15989834505559 0.44620871756059 0.096344652020308 0.093755811771313 0.16004521008142 0.19415898448744 0.12371999433486 0.020075289613978 0.23401731990023 0.35691352916713 0.18603288617965 0.12755956578859 0.34479541486248 0.26285860043662 0.29395657631703 0.35719182899628 0.4055993513092 0.23389529882366 0.23074000588645 0.31259954037248 0.31151409552859 0.45412356864383 0.35049006548475 0.44184368438829 0.35772789850094 0.29563711945779 0.32184698624338 0.36877262319826 0.41601733768189 0.33172230813288 0.11993474332404 0.24515367100821 0.026015249700098 0.071385419364861 0.11563114407084 -0.12387583092594 0.19691847373222 0.1353474528036 0.019660302014734 -0.022806179723874 0.23853887207021 0.083149991138463 0.32546837999022 0.39701365563498 0.024229638371701 0.086616603834972 0.0034431953654384 0.0065180676617369 0.12934332625828 0.029919922524205 -0.056662232508601 0.024357891952041 0.24994046842341 0.22245342749865 0.48164576901053 0.49168711758032 -0.14045615678142 -0.1551910142671 0.27305491591285 0.16608320442534 0.032633781511233 0.20764626410456 0.2567534162965 0.29747332883055 0.38137516374267 0.32854301232163 0.3850422864946 0.44237592859509 0.25951380417443 0.49672979013819 0.21003823727471 0.28519865892646 0.27498256246848 0.39655782944915 0.45581839243957 0.47044886085787 -0.16848840432839 -0.035580442471483 -0.12855553567742 -0.085330658287026 -0.15641223276244 -0.18523628241204 -0.13973215861037 -0.21469479529233 -0.095450693713007 -0.30716574933111 0.4289151052343 0.40508858312557 0.42393244678838 0.46904353227908 0.44061138644963 0.46467853593039 0.4681073397817 0.42364274888094 0.3869751642181 0.48392526759629 -0.21099086456541 0.41821326790017 0.48436392275676 -0.28296318324919 0.45687330363979 0.46756521481673 0.4334114744152 0.51873651365065 -0.17502975414084 -0.10052882879929 -0.21993208093715 -0.20100126128135 -0.034541736899999 0.11168977568238 0.46030844265683 -0.15167361661642 0.36901847139031 0.42740131164075 0.45333808687566 0.41584776856564 0.45864706417172 0.40369040264821 0.44589186279228 0.51133139943039 0.45650526360511 0.37225028615092 0.47334823515179 0.40308550644229 0.47433729031877 0.43854394289695 0.43222318452911 0.45502627553346 0.10626670229712 -0.10162460001142 0.41361582672856 0.22210547939274 0.048252126102016 -0.097722936620042 -0.27638999719001 0.45875051386202 0.40942378462252 0.12808342171085 0.093675821714916 0.24743719910777 -0.033803225039666 -0.21782165888622 -0.087568265518016 0.3098904076605 -0.31596771775017 -0.033369553704179 -0.25166766035025 -0.21836734365061 -0.1820428147924 -0.22952067183325 0.14268666535026 -0.10749148308419 0.24993905599169 0.34195258676129 0.31204605089469 0.31469365401861 0.4345718413588 0.00058112774751531 0.33985182513049 0.39464119921397 0.45866808046294 0.3561985621569 0.46422728930273 0.40394357103764 0.45129077018583 0.43204925878123 0.45442935107578 0.056471056201348 0.44477587688958 0.54975888028811 -0.013160965381664 0.46916408362877 0.034026269729741 0.15300510091273 0.0088986831233483 0.17808186108032 0.33926761676484 0.39694799649631 0.32301144697206 0.40145460315777 0.26914072475709 0.29855577894539 0.37795862518295 0.43526280654696 0.26874002658167 0.18032725954746 0.36446423355668 0.34644745509976 0.45878800104348 0.48454949480203 0.4690960375321 0.40508074849391 0.16580550060196 -0.028037016429109 0.41189049198182 0.4144798250992 0.13945804040231 0.076683014728555 0.4854941928737 0.50158353563644 0.074118199256132 0.020497368475651 0.071835611481321 -0.00024534167166611 -0.064036822226047 0.021762809123232 -0.10707306061431 -0.1046122450343 -0.11791451561088 -0.14137384120832 0.67418832031813 -0.16114399204678 0.41738833227252 -0.059826016524553 0.0051559875062961 -0.26667926727675 0.18055643877825 0.43056150061703 0.45349634973889 -0.18321258451179 0.44311062286201 0.42943259365413 0.388173856338 0.60249980613328 0.4092807676435 1.3620601301308 0.43960941451349 -0.068610346800671 -0.099590028874836 -0.082887594464418 -0.17166263009469 -0.22066700301626 -0.15120442929707 -0.24311774929109 -0.21533840060834 0.45625043282475 0.51548087040877 -0.15093679010552 -0.21690323793833 -0.26597202804477 -0.34868793502455 0.45420360400214 0.8684884519846 0.4252955463618 0.44590435792572 0.4596123544809 0.44886106062566 0.50365714892173 0.45993230203322 0.51462490328408 1.6924679564023 -0.22495853035377 -0.26046013815653 -0.17604724967899 -0.22472896287446 0.47401549644783 0.51664227244362 0.47551501973605 0.47860427642004 0.43967754752736 0.46272606703361 0.42361137312279 0.45056798239074 0.48090565917632 0.50197888230733 0.45775499548404 0.42070839236526 -0.25744330522051 -0.30354716750502 -0.23167149641409 -0.24072802837363 -0.30407804897685 -0.45046786799736 -0.20134726764115 -0.31604770478642 0.50223637489813 0.43772490926365 0.4716215343422 0.40973616651906 0.50714141630102 0.39274809804614 0.50447424639034 0.6031281956536 -0.24552557272621 0.35604915610347 0.48015891608654 0.95972258218289 0.55688286920452 0.51766974730838 -0.31065646895462 0.58485051514318 0.47153705615714 0.66970759911653 0.4409306262835 0.42345856285373 1.3393061873748 0.6176895196062 0.43590286383888 0.42580974246725 0.48308087066806 0.55875743518882 -0.20404419791566 -0.25435059475923 -0.22728452033753 -0.26647202690336 -0.059032509771906 -0.29766550732305 0.47214625525543 0.50000244129452 0.43403508541073 0.45372382569815 0.38554217842549 0.42097981901225 0.49306783396511 0.42835636132275 0.46692299553107 0.42251671114935 0.34011396419905 0.43877111979972 0.42589107928292 0.46655660078058 0.43654861295964 0.46442658402821 0.4490980347833 -0.30355413326199 1.1490923374823 0.299513895777 0.424769446752 0.36004186126342 -0.28317677749648 0.87160751425331 -0.26414539702041 -0.24225834885033 -0.32803826802988 -0.22438318623014 -0.27624273803612 -0.30501459314915 -0.68339483749502 -0.19066369129356 -0.21884260769174 -0.087829457494498 -0.17453472510465 0.24500941919501 -0.20956917486631 0.44894380547214 0.43331760652813 -0.18434398581744 -0.2743900437386 -0.18053512657798 0.47751035764133 -0.11085608809131 0.23483520227366 0.33324486716868 0.44027777758544 0.42921379888218 0.15256973154172 0.11257940874882 0.2247075801703 0.23079137710903 0.50012279582503 1.5980966503091 0.5229202928633 0.86441184791252 0.80374771799011 0.77923179219974 -0.14336411562663 -0.24278319753357 0.43644771384296 0.4623523311825 0.74643462853291 0.44446090006522 0.44096581456777 0.40351039655497 0.46844769881082 0.42878302190478 0.48854091584278 0.44176223176107 1.2041108314998 0.42179492436771 0.50052585462228 0.15025347421844 1.0388987848955 1.2013360447347 1.6508591782068 0.33856378017902 -0.042220091232592 -0.18084561244625 -0.33236140828166 0.480780852998 -0.023026104619223 0.39963816024683 0.42890349090431 -0.18873255468474 -0.14237994030145 -0.1564776569214 -0.11599110232025 -0.074111899986335 -0.0085290958414839 0.27410939169056 -0.052634611521881 0.21884283479482 -0.09263947909601 -0.080524012305665 -0.089417497166999 0.45043568653097 0.42891122823823 0.44944765391853 0.43389141606582 0.41856483269076 0.47283003754335 0.67766846511021 0.57399383782277 0.47063762445158 0.43978128397101 0.38503375200028 -0.014834826023001 0.39130575111237 0.40082656910964 -0.60539039574331 -0.63821442845308 -0.62309527560684 -0.63412001554849 -0.63894047269116 -0.62813674307243 -0.62757010152048 -0.64307160116665 -0.6459183938726 -0.64067999591926 -0.59865678971745 -0.66899384574751 -0.63286055721181 -0.56199921961435 -0.60749112168539 -0.5395785440157 -0.6243220922845 -0.60824080893837 -0.64156913508987 -0.6487400956153 -0.65659319358581 -0.66050763546498 -0.65267037943327 -0.54958613131776 -0.64749058025539 -0.62727669905868 -0.63293353575583 -0.66851474097179 -0.63765735164902 -0.58040465773019 -0.57745052090403 -0.57203168912768 -0.5023537234209 -0.41240965