# vtk DataFile Version 3.0
d-2__ created by libgimli-v1.5.0-1-g5991b6ac
ASCII
DATASET UNSTRUCTURED_GRID
POINTS 3727 double
306.40625	0	0
305.85961992738	-1.2126104522306	0
307.00965787134	-0.99428445289814	0
343.984375	0	0
344.52649779652	-1.317426805559	0
345	0	0
304.01867875106	-7.0863488963706	0
302.98511648544	-6.7035196260937	0
303.25858394366	-7.8530579468699	0
325.32893070073	-7.04682450272	0
324.1220135314	-6.818205596474	0
324.76823620353	-7.8385133662682	0
281.53234790782	-2.0467358564746	0
282.54064461158	-1.2602217499531	0
281.52571438416	-0.92476460958749	0
278.984375	0	0
278.31980746263	-0.95660133367073	0
279.34526281882	-1.0413701458761	0
283.046875	-4	0
282.03125	-4	0
282.55694625305	-5.2532970172751	0
280.51010771253	-1.2900326835186	0
281.015625	0	0
282.03125	0	0
289.140625	0	0
288.63814143178	-1.2684852380851	0
289.78114692901	-1.030288731136	0
365.64955243462	-8.5464522140353	0
366.34805462508	-7.2391749638191	0
365.09999031196	-7.2179661826408	0
283.046875	0	0
340.6867901301	-5.0977628984027	0
340.9375	-4	0
339.921875	-4	0
284.57048610614	-1.2591420215474	0
285.078125	0	0
284.0625	0	0
287.61996238891	-0.91809906815029	0
287.62547330182	-2.0494325319595	0
376.484375	0	0
377.01424369909	-1.2897449728923	0
377.5	0	0
286.60332851797	-1.2582777298325	0
287.109375	0	0
286.09375	0	0
311.484375	0	0
312.17625910972	-1.4185100042109	0
312.5	0	0
288.125	0	0
380.546875	0	0
381.05641756232	-0.98836007487908	0
381.5625	0	0
375.19436517667	-2.0727141375373	0
374.98318254365	-0.92858192187772	0
373.91399367277	-1.455693017209	0
291.8970556921	-5.1218038413103	0
292.1875	-4	0
291.171875	-4	0
285.58642071809	-0.91733736199852	0
373.4375	-4	0
372.87970182488	-4.8656706306453	0
373.76838932855	-4.79336306061	0
395.48292461489	-5.0886420180755	0
395.78125	-4	0
394.765625	-4	0
290.15625	0	0
357.74265380166	-6.1219157198285	0
359.06834551775	-6.1400674904513	0
358.29614012827	-4.9146150295619	0
290.59721395679	-5.3077452953255	0
290.15625	-4	0
290.78199684835	-0.93099611371767	0
407.06041515087	-4.894634675611	0
406.60391606717	-6.1520942200791	0
407.85014747543	-6.0022625760026	0
315.99221775981	-6.4363363028973	0
316.86599887967	-7.3407390984277	0
317.23569949608	-6.1829669073037	0
312.94296188471	-2.8033328392495	0
311.83391852621	-2.8980515011335	0
312.5	-4	0
404.38444365997	-5.3728105285208	0
403.34251230405	-4.9468916967483	0
403.23146965082	-6.0714904700424	0
296.90078921048	-0.81026403176879	0
296.25	0	0
295.94374237032	-1.4335068711645	0
297.265625	0	0
297.79046217406	-0.8577893802099	0
295.234375	0	0
292.68668314094	-1.4143319509815	0
293.203125	0	0
292.1875	0	0
360.234375	0	0
360.92732463705	-1.4186769786323	0
361.25	0	0
335.34823944037	-5.0181979440418	0
336.29619839765	-4.8934317478419	0
335.859375	-4	0
298.28125	0	0
285.75073854998	-4.9499108675437	0
286.59551113216	-4.7881918745404	0
286.09375	-4	0
300.80115383813	-1.2578694943211	0
301.328125	0	0
300.3125	0	0
298.8136993366	-5.2516847416726	0
299.296875	-4	0
298.28125	-4	0
327.734375	0	0
328.27642668357	-1.3172078661183	0
328.75	0	0
348.63150105037	-6.2170035713339	0
347.82599154026	-5.0797353046158	0
347.4176305957	-6.1804885094964	0
302.84459170548	-1.3807165314048	0
303.359375	0	0
302.34375	0	0
373.19342917271	-7.4802444531338	0
373.76100174164	-6.4597634914219	0
372.86033773143	-6.5646863326578	0
304.90755370727	-0.85034191117391	0
304.375	0	0
304.0373445331	-1.1275318895708	0
305.390625	0	0
368.359375	0	0
368.90268139872	-1.3153188476243	0
369.375	0	0
352.109375	0	0
352.81148539007	-1.4400562916687	0
353.125	0	0
301.82377514708	-0.94412670753517	0
392.734375	0	0
393.27642668464	-1.3172078712678	0
393.75	0	0
346.3896834015	-6.3574460894318	0
345.34924624419	-6.9209940087804	0
346.37122853225	-7.3522751527534	0
279.07038153885	-3.7906495974143	0
280	-4	0
279.60719395235	-3.1172869976622	0
309.453125	0	0
308.4375	0	0
308.90448208908	-1.2890892906886	0
319.609375	0	0
320.30114009701	-1.4194760419946	0
320.625	0	0
310.46875	0	0
309.99162704869	-0.94279476985131	0
310.93296034534	-1.0113647899956	0
329.1234499474	-6.9759763301358	0
330.15432220958	-7.4202792749942	0
330.16136406653	-6.3886622226458	0
384.609375	0	0
385.31307019474	-1.4396815126123	0
385.625	0	0
313.14061107017	-0.80453535676436	0
400.859375	0	0
401.56277552229	-1.439170077138	0
401.875	0	0
314.53125	-4	0
314.15788849875	-2.7676499866321	0
313.515625	-4	0
313.515625	0	0
398.17266429262	-6.8247967590763	0
398.61340877176	-5.9227710787399	0
397.44846842929	-5.9991759505684	0
338.37222741105	-0.8675545073343	0
338.90625	0	0
337.890625	0	0
376.484375	-4	0
375.46875	-4	0
375.94546158017	-5.0203348121124	0
335.859375	0	0
336.56218993744	-1.4391511763624	0
336.875	0	0
321.26063673593	-0.80534913377795	0
321.5899777075	-1.7278199703094	0
322.12118090631	-0.86858273268218	0
321.83849293297	-6.2401089210195	0
322.7666915067	-7.1187187542789	0
323.19257259845	-5.5327422909238	0
318.59375	0	0
319.06477839874	-1.0121982858404	0
314.34786121484	-1.6786158217699	0
314.92017477403	-0.96224094107721	0
313.99938145217	-0.86505498215871	0
307.421875	0	0
346.49588765046	-1.3157850513691	0
345.50945656334	-0.94423298843313	0
345.51031466566	-2.0690542854842	0
322.65625	0	0
321.640625	0	0
280	0	0
296.25	-4	0
296.7082956242	-2.824505939872	0
295.60151964629	-2.8903260662021	0
282.54189674618	-2.8065240287957	0
316.5625	-4	0
315.546875	-4	0
316.32344967196	-5.1578129053393	0
342.48626772954	-1.0218197997306	0
342.96875	0	0
341.953125	0	0
314.53125	0	0
332.44081979653	-6.2571005822391	0
331.59083967728	-5.0935023095146	0
331.20300510561	-6.2200196915641	0
283.5547918923	-0.92761531939461	0
331.796875	0	0
332.30306711029	-0.98649084592084	0
332.8125	0	0
375.89026148338	-1.0685067705594	0
375.46875	0	0
322.65625	-4	0
321.640625	-4	0
321.89892768667	-5.0464133442047	0
326.71875	0	0
327.14281791211	-1.1654732109564	0
284.9520749907	-6.5586319501192	0
286.08332323274	-6.712621484141	0
285.58560059536	-5.852784929246	0
329.259268114	-0.94373090606436	0
329.765625	0	0
331.38866406881	-1.1541386750526	0
330.78125	0	0
330.24526992532	-1.314353879518	0
336.23116403668	-2.906187440942	0
336.875	-4	0
337.31977430561	-2.8095808803953	0
285.58687433638	-2.0370539363852	0
286.60446291391	-2.806511359819	0
378.99578755481	-1.3135793835353	0
378.00563477082	-0.9358423102202	0
378.00155832402	-2.0646898558444	0
335.27971586967	-1.0959440411248	0
284.0625	-4	0
284.68337199342	-5.2152806380148	0
285.078125	-4	0
337.51759473051	-0.80974150708001	0
334.36136596937	-0.90400192970105	0
334.84375	0	0
333.828125	0	0
374.453125	0	0
299.68529886697	-0.95330762062284	0
299.10437350419	-1.5926770680278	0
299.83503046673	-2.0183846820088	0
298.7432638079	-0.85341513357545	0
348.046875	0	0
348.55051697492	-0.99011023840518	0
349.0625	0	0
343.39284011919	-1.1655071246597	0
358.76624852831	-0.94183601881571	0
359.21875	0	0
358.203125	0	0
337.890625	-4	0
338.90625	-4	0
338.51819432527	-2.7711023618882	0
293.75650959239	-0.89142756371155	0
294.21875	0	0
304.86953664432	-1.9050305277322	0
333.35237492412	-1.3272598755529	0
285.58673806638	-3.1321573760392	0
322.26678639041	-2.7702804715882	0
294.67852872357	-1.0593658497994	0
301.03276066531	-4.9835292844751	0
302.15460865592	-4.7528591000836	0
301.328125	-4	0
329.26013500471	-2.0684082766681	0
410.16192858979	-2.7291867604719	0
411.04932121621	-3.5529694362864	0
411.43801097204	-2.1960001384385	0
346.015625	0	0
326.23623529092	-1.0218546157057	0
325.703125	0	0
308.53601872698	-2.6173188689464	0
307.57242284315	-2.9729950898033	0
308.4375	-4	0
347.64021299707	-1.1556121228993	0
347.03125	0	0
366.86131947884	-1.0217680448649	0
367.34375	0	0
366.328125	0	0
349.6023748524	-1.3287857060447	0
350.078125	0	0
353.125	-4	0
353.57243999154	-2.8099421403471	0
352.48137361477	-2.9066252919804	0
307.77020044605	-1.8026109485921	0
307.9034706286	-0.81664946317454	0
299.95647207801	-5.0480226946324	0
351.52941290141	-1.0966527312956	0
351.09375	0	0
350.61119361136	-0.90478102652703	0
391.23623586857	-1.0218571537265	0
391.71875	0	0
390.703125	0	0
353.76372045232	-0.81037187763023	0
354.140625	0	0
354.62479483804	-0.8691627763133	0
355.15625	0	0
318.14058584465	-0.94163069466025	0
317.578125	0	0
384.03392288107	-1.095783899436	0
383.59375	0	0
354.09645633595	-1.7329845941009	0
354.97323429515	-1.681860507549	0
359.69018037139	-1.0120945311936	0
382.578125	0	0
382.10794684446	-1.3281770215089	0
383.11581056472	-0.90400709057289	0
354.78372229941	-2.7702508023505	0
354.140625	-4	0
355.15625	-4	0
305.41504349875	-4.9706622372425	0
306.40625	-4	0
305.390625	-4	0
395.24526992532	-1.314353879518	0
394.25926811418	-0.94373090692262	0
394.26013500489	-2.0684082775263	0
370.87621230867	-1.2692775934456	0
369.88672127422	-0.93364838205561	0
369.89411691075	-2.0527297854951	0
403.53880049425	-2.7691984961932	0
402.32397329567	-2.8092836881588	0
402.890625	-4	0
378.00094831834	-3.1416107416849	0
378.97176496693	-2.8301389212205	0
361.89048420674	-0.80454333939628	0
362.265625	0	0
320.625	-4	0
321.06475246115	-2.8042740859886	0
319.95930235603	-2.8988125840208	0
344.54906275195	-2.8324873668984	0
345.50954330366	-3.1473944152122	0
362.89248894354	-2.7692074590313	0
362.265625	-4	0
363.28125	-4	0
363.28125	0	0
362.74664697414	-0.86569719890133	0
370.88733769883	-2.7821191179436	0
356.171875	-4	0
355.68265327457	-5.3350117156363	0
406.953125	-4	0
405.9375	-4	0
363.65440793006	-0.96859325389653	0
363.0841769197	-1.680803190387	0
330.44886447265	-5.1799377085588	0
330.78125	-4	0
329.765625	-4	0
380.03426127605	-4.860667253014	0
379.53125	-4	0
379.11887878504	-4.9289869558134	0
367.76808850147	-1.1651721909953	0
370.390625	0	0
346.6903546457	-5.1690204556293	0
347.03125	-4	0
346.015625	-4	0
371.98632203398	-1.028313894683	0
371.40625	0	0
373.4375	0	0
361.25	-4	0
361.69039424484	-2.803568766138	0
360.58469417079	-2.898544624939	0
395.78125	0	0
396.38866406881	-1.1541386750526	0
328.2990145294	-2.8323028917186	0
400.27981941501	-1.0959479316841	0
399.84375	0	0
368.92662091453	-2.8288884570371	0
372.421875	0	0
378.515625	0	0
[...]
CELL_DATA 7130
SCALARS Coverage double 1
LOOKUP_TABLE default
1.1347242305538 1.6063536271443 0.40207938019397 0.44099685469714 0.81060197701286 0.53642631149237 0.536772190331 1.1413210019884 1.5200972599642 1.1688184861644 0.41508629688777 1.4835256418603 0.68468558432486 1.5153855885691 1.1013030958164 1.5783984671497 1.5946857357893 1.5990913170215 1.6852260096721 1.709448702867 1.0322869633124 0.67299284669555 1.2762545344141 0.69438878195855 0.68935258689872 1.5604559102148 0.53890150617905 0.67428139538822 1.1773065267588 0.42850325100326 0.46553650233964 0.62119252636046 0.50628017634023 1.2047904951742 1.3937176776941 1.5985365401434 1.5990451260607 1.5312922779662 0.63509540431483 1.666865863652 0.62350528990051 1.5765508239418 0.68558628501098 1.6098574611422 0.51985960529361 1.6752689964382 0.4884211448393 1.1901488084211 1.5906158519445 1.5896317551837 1.5723134445904 1.6151097154151 1.123363266465 1.3035916165489 1.6168685999116 1.6209679336108 0.47350302689372 0.027369012360574 1.1356135217182 1.6098378230587 1.5973184453394 1.1876486544346 1.2718807744318 0.45486949323076 1.4904237848045 1.2730474571188 1.597356672768 0.52228683796064 1.6668515239657 0.45417589709088 1.6285839807253 0.69264651444754 1.5254419694171 1.219389325967 0.5272506980574 1.6548421288078 1.1415362258895 1.621169267141 1.0665192385483 1.6575339122878 1.2913836911821 1.6735659488943 1.3893389305669 0.60539591336491 1.2884842938713 0.72397152064715 0.69557480295101 1.6261264745731 1.6600079877298 0.56675877152262 1.2526922233162 1.7338314199643 1.6100424306638 0.71690602124061 1.6072620599404 0.39191494432088 1.6791389850738 1.5875585745351 1.6511585638188 1.1074613166734 0.59131296338574 0.61742025565489 1.6435560608614 0.93246868021387 1.1444900908808 1.1207567381945 1.6799002501641 1.2869302566182 0.604511750771 1.332432886106 1.5713458182373 1.1736526727394 1.0789502645077 1.4094654356267 1.1786365052876 1.6473355983043 1.6329643206022 1.7326458955518 0.51926612427289 1.6299913919672 1.6653375813727 1.1340103137152 1.7139943352332 0.23983811536159 0.53574568361262 1.2653858253719 0.66524527598535 1.0934648174442 0.067783694081096 1.6956409492608 1.6509916283437 1.2020473999231 1.6291085985196 0.62232833191067 1.1686583646282 1.5483435342948 1.6119026048502 0.5962206832015 1.0817301152327 1.6151516046011 0.62405266101141 1.6088049252831 1.6520640750732 1.6359582724972 1.2331703311702 1.6597668851427 1.2460322259417 1.6590183081868 1.3957756656828 1.6919824041864 1.0443663352693 1.7162136859179 1.2107878189032 0.52196144036416 0.6847337793933 1.6280096602026 1.081634949712 1.2728408413982 1.1134364792744 0.52274366405449 0.6917749183445 1.2780909442745 1.6054775515069 1.2635627818686 0.61894795747829 0.68038531302526 0.53399973207998 1.635141084364 0.89798199438844 1.3123908737166 1.1698080033025 0.66051689818408 0.61037803530813 1.6610743305391 1.2654863272609 1.1444936701916 0.71879063880682 0.66553577746542 1.5972226537849 1.5795085305128 1.3003691527535 1.5735786695009 0.67212637959777 1.1094669662554 1.6770906877487 0.61910475174522 1.6457165801315 1.6303507547501 1.1299743896122 0.82749189817407 1.1418045058493 0.87942477592994 1.6333911749096 0.87248193188683 1.5666649412978 1.605570431198 1.5430552488343 1.1075062886882 1.2844076312072 1.6202713124293 1.0722289291125 1.5612986510705 1.6581520657052 0.61888164960909 0.51566599947925 1.6452685237679 0.72887491249084 0.87338803125764 1.6368870422621 0.76339151326152 1.31888202718 1.6212459874581 1.2684424020503 1.6314176103553 1.3915656180521 1.3646269826347 1.6509958436691 1.6208375444101 0.72281813271687 0.50321933169726 1.0665631501453 1.6525928262208 1.3333951161152 1.2272474958323 0.73090097761884 0.59103060727823 1.1770815970203 1.074575163326 1.6126346532922 1.6478729075741 0.67071606013565 1.3301405347216 1.6080819589326 0.99909337778579 1.6555416553832 1.2670390712915 0.38257449451475 1.2542758527734 0.9915380272625 0.51576089707191 1.0214642761541 0.90959402500392 0.30898989723901 0.99978434302833 -0.073475808488197 1.6479589246995 0.87626943373788 1.6404287726465 0.97748503973427 1.1326022394718 0.66440115952821 1.0781766423347 1.6028655874004 1.0476848028758 1.2326495262565 1.665132026748 1.6753865746711 1.008261728574 0.28638569461579 1.1036762411569 0.54729133757442 1.2196083290015 1.1427448593575 0.62103062651853 1.0319129101924 1.2107091203234 1.1049617801528 1.086211946305 1.2299373871684 0.69107509159928 1.659033074759 1.0528376657286 1.0937805070883 1.3840108285879 0.45561016021598 1.6103751115668 1.1323990096496 1.2463883472809 1.0667025894579 1.3349553197844 0.60937219987423 1.0373106638357 1.662555594525 1.1396637923772 1.1404411214617 0.63447986566828 0.74207727010249 1.109888300323 1.0569667892436 1.251841492542 0.99760442371055 1.6664739891953 1.3002562061847 0.98185560363792 0.71983338792784 1.6606486690792 1.7235637944414 0.63613722900536 0.66505589680936 1.1689597835037 1.0371410204276 1.2417954318694 1.1990085361968 1.0583059948567 0.60862968701279 1.0599030781408 1.1100150120621 0.60216205288523 0.68554536332541 1.0805085070453 1.0520557622838 1.2967913255064 1.0214255210688 1.0653216697618 0.62781140188199 0.8819017127116 1.1302475177959 1.2014893233875 0.61405618974764 0.83089784754006 1.1707917976108 1.0813320857774 0.73985779326855 1.406435709205 1.0669502512224 1.6172424383444 1.1541249639233 1.1041649053486 0.59710915307169 0.82011650784364 0.99812820821994 1.6121241073205 1.3152414595011 0.86285997147198 1.0115176588557 1.6250278220791 1.3541905039294 0.82586823035491 0.50915787923662 1.5457071413607 1.034678233164 1.6848067282434 1.3551575420747 0.60287058889446 1.3298065621018 0.81456738079968 1.2680982352542 0.73099860689919 0.98007428705724 1.5999827313506 0.49391303080209 1.1807479126842 1.1625020043058 0.96332203187046 0.55164210108701 0.73530116588054 1.1932590970661 0.60584951779301 0.66101906061186 1.2971609299739 0.74596558501763 0.80194787045037 1.288183324197 0.98076023678025 1.0369192398116 0.59631493714107 1.2362757509092 1.018113573178 1.2009809211272 0.97630455969032 1.2079001469616 1.1714154122355 1.055803883324 0.81969043337761 1.5822187992309 1.1581590396015 1.2003670001952 0.63769840384859 1.3429262804904 0.98837899574876 0.73278257580381 0.64924203925189 0.52753592667155 0.96727018511668 1.2141149461892 1.2138393399455 0.46710110510988 1.3362896668261 0.68325351021217 1.1656411577766 1.3015217813958 1.0432594120084 1.1882415988905 0.98765683888105 1.1581238928624 0.59325665987853 1.2080706512389 1.0551591190465 0.95756920621455 1.0205619930053 1.0566420543931 1.2346052070955 0.96223709264662 0.68357411800172 0.90222091142413 0.6140354043974 0.96683588631001 0.68655306124342 0.90954703842102 0.64138573567751 1.061911715133 0.47667889165997 0.6702254690115 1.0016560460782 0.36100704405071 1.1396511250272 0.51870618667248 1.0856263560963 1.1634326648966 1.0796422882101 0.52131293671489 1.0058810721252 1.390419175014 0.84771299127107 0.64811595605713 0.60712498518121 0.61564968376864 1.1727104130717 0.54401712340777 1.1138850261243 0.91311703782145 0.81398904875279 0.6961381426552 0.86804393319029 0.52336095967948 0.53511568111298 1.1802962422835 1.1141075177033 1.2763787988215 0.78381442627228 1.2570596401131 1.2665987560204 0.51828616417202 1.060652232172 1.2298013388838 0.90888690452782 0.71342135329212 0.60372532014759 0.97346406379329 1.1716611215878 0.6921237715609 0.59293809260539 0.89334034556434 0.66867358702055 1.0402296398644 0.74234961962998 1.1311331331192 0.55841237131427 0.54842035237409 0.62209947782723 0.57325909679644 0.62811033872579 1.1590601349277 0.7720806171254 1.3184068882479 0.52910699916813 0.6811031668416 1.1714758279444 0.55398440456611 1.1700746499138 1.0301106749419 0.69519401564278 0.63284833355447 1.0596218458273 1.1388933627411 1.0498065591302 1.1211422408772 0.51328164887496 1.077476164078 1.253667199903 1.2740393785203 0.70627383545733 0.60540292280382 1.1082415969225 0.5482171463562 1.1777665683182 1.0235013176767 0.70137883916183 0.78019600176433 0.50337849268711 0.59890488879872 1.6545793422515 0.6551943650138 0.84931839598395 0.89006642776431 1.0068230407041 0.72105372961741 0.60637436195708 1.1213047742088 1.5757437271784 1.1745537758029 0.52032104315556 1.3226109950468 0.52317962212923 0.65971454431039 1.0220902779306 0.44958875668261 1.1553234934659 1.0439844399498 0.66932282919428 1.0169451389533 1.0280765598793 1.1956857309633 1.0377007947057 1.0708239092146 1.2229889753029 1.3200870418391 0.70667986605149 0.55648136614897 1.6207954079281 0.70882720469145 0.8470034866039 0.8861212448176 1.0063806688485 0.7360993985981 0.6096007744555 1.1046116342652 1.6539621525494 0.95006846014153 0.52813890958972 0.43121150528712 1.6086914402677 0.69392133181975 0.83822135752461 0.8910575158026 0.98832148131745 0.72558073238199 0.59818297856359 1.1314955926943 1.6403754180126 0.79775857541447 0.31929153820726 0.93871632766734 0.50038166062236 0.52854769830324 1.624540319359 0.67139032650195 0.80292900550181 0.85590629438731 0.97305966456415 0.70750814154631 0.58754626791105 1.1009748702733 1.6443799698398 0.98189685425928 0.97088512858311 1.6249667776519 0.81111164220007 1.0068514546036 1.1857205960715 1.2567722460208 0.088459819975126 1.0510801284259 0.62745543552608 1.282288294612 0.75251327681928 0.66705948753374 0.98624783688596 1.613915578921 0.6789399389977 0.96321642278344 0.67088395845589 0.99972236800505 0.37086875897746 0.87116507047555 0.94465667573998 1.3245332950238 1.0464576162472 1.1180032305295 0.61085932906531 0.69469685315329 0.6942326628444 1.2754200492945 0.76965964600456 0.66989708845963 1.0091006907997 0.64527592999023 0.85363481138215 0.81720285290297 0.70435468909574 1.1726888265167 0.79395940571934 0.52119504517391 1.6826161169588 0.69139811550505 0.87750326817736 0.92056855300578 1.0020683042369 0.76058700021878 0.64025604577332 1.1400839762869 1.5942524593217 0.68413452106145 1.0009234301377 0.90532731964214 1.1392663678182 1.2747423742651 0.76810950638614 0.67075943776408 1.000532546045 1.3081203928204 0.96111254360204 0.69405986238389 1.6305805410242 0.53935426899 0.84574405490332 0.87814055565838 1.0085053126591 0.72722386465862 0.6033468407176 1.1150364512425 1.6435082763404 1.0193608494486 0.49184712469823 0.86786335694165 1.1478039506559 0.87639755749315 1.1252505237765 0.84658780509849 1.161654140947 1.2583948083554 0.60674802289945 0.94433983740547 0.19491302272538 0.63816459500818 1.6379252131206 0.68626269806494 0.78166221411636 0.85759035522704 0.91128499832337 0.6678660883207 0.48904858981989 1.0510999105487 1.6229920412569 0.9961280489739 0.27242524031902 0.58431316293026 0.72510370825085 0.48471454010874 0.8903631986073 1.134754344745 1.1361057552054 0.6939968201184 0.69249519473648 0.62573990271378 0.45190877897478 0.33186710036076 0.53120587519334 0.54824093606898 0.50095139053232 0.65219077361448 1.0855075545527 0.6920045989182 0.6918921729016 0.61590135861509 0.94212126366563 1.1182528295298 1.1040556229589 0.82291393210734 0.69819655617377 0.64062074962794 1.0271945435963 0.60187445508223 0.68648956874296 0.56707524869983 0.8753723902908 1.1482718652408 0.51740175334603 0.62441775413761 0.48971349136684 0.6240605861168 0.51020893687785 0.61237277890611 0.94715459709137 0.61351603869912 0.79138297302713 1.0481677102829 1.0130955963202 0.83220557249596 0.49293420979859 0.75430049508561 0.4930951306169 0.58569337283371 0.13810371993779 0.53792021749639 0.1817611988006 1.1035899584664 0.46420434497394 0.3484101239038 0.35279169241951 0.56610040121354 0.25068685718214 0.6666244829141 0.32989737137129 0.69032448139568 0.66732574798429 0.62429537078072 0.56798049756778 0.87082227930961 0.52100857630417 0.77080483352804 0.52522786401597 0.5517562683306 0.63947031183717 0.89199776067419 0.5242559008906 0.87889216267788 0.52319486674462 0.87331383635953 0.47939370528746 0.76504415829237 0.47490643787779 0.51508784333222 0.69998081619635 0.47477961392638 0.25879369764437 0.52728036763389 0.18051942993795 1.0552465100038 0.48901471546924 0.47304085841367 0.6297358175473 0.57548454992648 0.56499406288375 0.52606169412907 0.74151774682825 0.26123122012601 0.46265106708032 0.47014017684044 0.5404403894998 0.69576413464376 0.79329900210341 0.46107917939539 0.49145965846123 0.55238173035051 0.60411615342897 0.48063481223077 0.68934398456052 0.47255423608519 0.16107768453979 0.49404020594117 0.49278114120853 0.53227902617452 0.6169733490215 0.42401747341991 0.46069951922486 0.36059402620863 0.32720319614954 0.47936951568423 0.61685786630759 0.43398654363414 0.53658537163748 0.39867998200052 0.69414345065874 -0.090280095728735 0.41101436126059 0.23394783858482 -0.024300972056276 0.3431529372321 0.41683292616341 0.70696880113447 0.37568326950839 0.51385741751493 0.63511751786865 0.43919637366493 0.31586666303223 0.3469185907988 0.5376984985706 0.4998297893317 0.33901820569508 0.48652811266673 0.55922846640923 0.20466372340067 0.5523561317424 0.27525622783317 0.24791951561109 0.41928297161971 0.41282419467048 0.427114648529 0.30217701869535 0.21727689767852 0.4304460863102 0.39182870833239 0.44030344550374 0.21112348536121 0.068926175388649 0.30398638038301 0.53602339788884 0.40345999481322 0.58762334848498 0.78054318079687 1.1306154889836 0.56078104497793 0.63578395491309 0.58816542598889 0.75028877434092 1.1331844571594 0.63511946942101 0.52412237587435 0.70148355305794 0.84828842348763 0.62020719660137 0.55853443664918 0.75153031158065 1.0360913052056 0.64425619232623 0.68844758762954 0.71558752934146 0.67413592696978 0.69290933388992 0.56824524480457 0.63067016144205 0.65400484548458 0.74326447080307 0.59332732960466 0.44135866952319 0.56330611147981 0.66857875171578 0.67546424470969 0.61404050579404 0.44521133240246 0.39485452809339 0.60828467930886 0.72384120579618 0.71554736899565 0.34989429682907 0.42272672458627 0.4673929293107 0.45083260207146 0.32438110862456 0.73041600220753 0.34519245151971 0.59947264804317 0.57136343862438 0.3645732759122 0.64334943134054 0.90575126483246 0.74734755132116 0.54788072366401 0.72502886246021 0.65097004459474 0.78547306392249 0.88499252584517 0.73726404630663 0.92805256162657 0.76138330099943 0.93132515654833 0.77404688788017 0.88472554975385 0.73298377557324 0.52215504483519 0.66177524206349 0.95839329015834 0.78771793909953 0.92812445163765 0.76215862221664 0.86432017479022 0.72091406303494 0.57161056797692 0.50012685941465 0.47974604426885 0.57047365640579 0.51374929767553 0.67136915179034 0.55868690880216 0.59814457276651 0.56721079578795 0.53890981208338 0.52149172205527 0.57264466684338 0.50547292567474 0.50573859497758 0.5653755142762 0.47333532017415 0.47726842479088 0.51310880452203 0.44682695969333 0.70120078630298 0.5682077228913 0.52743154857313 0.52450608799886 0.67670997605592 0.60724354385688 0.71156746301444 0.83218772341706 0.81679623797768 0.60612737382463 0.52954998265064 0.5274896491841 0.60345297202796 0.55478472289631 0.72719858539065 0.65045150251345 0.79675566055008 0.50285321451607 0.31689076367937 0.96776145185639 0.96439619722993 0.48586409063369 0.56233821674035 0.69983749072515 0.49073029623444 0.48252394189521 0.59692849913176 0.54378879341099 0.53770565540541 0.60247379895839 0.60006081728199 0.72437214730507 0.57126417133354 0.67014782173145 0.55765206676199 0.68329788598719 0.55658068233143 0.61750365294909 0.50796380466024 0.51119766065768 0.71223101092359 0.40752989967768 0.48762895954729 0.52780327942229 0.39641607307675 0.42441720937036 0.59138248063955 0.56810932619369 0.56094148385687 0.71763282533819 0.65205068053318 0.7741295302795 0.92308436239212 0.90651475977119 0.55286938557656 0.3801193120537 0.44738640322905 0.7254912265063 0.51659665098722 0.64126096128363 0.55289959310426 0.61321537617516 0.61932388530865 0.48733691737567 0.60900829919217 0.53864427245285 0.53051152084927 0.61236117130251 0.54683735282899 0.59620784945394 0.56084982263398 0.42614361670551 0.57782375540367 0.447173229542 0.49143914875987 0.66429815074963 0.71205746012385 0.51060441736249 0.49382695644593 0.44447846040423 0.52264627670198 0.42854489481881 0.41528285124584 0.58974130665207 0.55375889680078 0.76875363929622 0.6398757023017 0.90612638491556 1.0042744753516 0.96383649289974 0.52722259834249 0.70830920442872 0.46753737153284 0.56547163262962 0.56971207666361 0.643914893648 0.57684457471749 0.69370640298191 0.54250806711802 0.60541374620669 0.51475868017457 0.51872766518783 0.4583948190067 0.36258683675249 0.46983392623149 0.51274306039225 0.40520967748355 0.4019961705799 0.50008268243407 0.59013126708078 0.60705210860471 0.71033516082282 0.57841468755566 0.4806725486676 0.47193808437747 0.5630667814854 0.60944539923036 0.68600031625099 0.54513612425419 0.62170251805511 0.56310093214841 0.18541497096592 0.50713546106173 0.56548216537816 0.47763678046451 0.45443657931679 0.45735711568762 0.3461924650003 0.39767842549102 0.44251754628167 0.4179867607328 0.64582629342284 0.55658589812329 0.52396668411849 0.44386867578035 0.67374093081076 0.56805897968511 0.69769854000968 0.85430135300174 0.85587419473871 0.52623072579952 0.71724672457448 0.45551267108292 0.59112531781786 0.65006320234964 0.63847772985067 0.39342517499226 0.56278489357818 0.60100954516996 0.44722649855538 0.61755692796203 0.43818698298446 0.54968108035755 0.47916138319439 0.49135003014614 0.56938433484837 0.40312968276073 0.44488585225799 0.66204225005329 0.50695861954271 0.69737009610877 0.69259988816007 0.61277270987719 0.4583546240725 0.61434744210048 0.56861939199362 0.41282610871883 0.54151322907584 0.57640677181752 0.58067615051911 0.46069527716059 0.617510217441 0.54159360207611 0.38912396599649 0.61962118596553 0.31250164029422 0.50491673410496 0.43675361827779 0.67123924049947 0.50816130873937 0.68682112544199 0.68118277008336 0.52623507880962 0.57396142065601 0.61660437259086 0.60114146609477 0.47273324695346 0.5358332673929 0.58961616093657 0.52365012257933 0.51361302983206 0.47949041630258 0.55635509530354 0.46396804738506 0.50591444395879 0.37585019589301 0.36270918962587 0.48123069563746 0.65417160582366 0.57526140689596 0.59416411549155 0.81084347435241 0.60339284319642 1.0380586460718 0.70711519420859 0.51607815324246 0.67539506351151 0.55473229329518 0.59343025868946 0.51707069669718 0.47583985606865 0.60576419772149 0.49648276012168 -0.17842423299702 0.066961633418948 0.14643525546261 0.39072002455448 0.38586445558505 0.53626911753258 1.2155760337744 0.56219600638895 0.55744239644521 0.86074813712009 0.4562395185038 0.69312842994948 0.36315057267475 0.60682679061844 0.4380941820384 0.6864468423518 0.29759761443416 0.44349958161683 0.47327721551323 0.61959925911956 0.59083868463274 0.61819443391745 0.84247402725288 0.60828186184609 1.0654967234191 0.71484932155529 0.48992777670936 0.67087626452292 0.54176225246786 0.60491205168094 0.49716049485595 0.44365412500993 0.62153917036677 0.51457325601404 0.54830641893273 0.72109746312904 0.53412053595189 0.71502604207379 0.58608951186949 0.64916795825347 0.61581238203454 0.46516777604125 0.54603852629175 0.60595562547503 0.52349617854155 0.51200338391495 0.29714898683193 0.51199301076509 0.44373920663454 0.45342447424577 0.60683651750708 0.50717320605653 0.37706737653205 0.6726553538293 0.59731153604022 0.63941777276173 0.86933932101547 0.62021959537247 1.0926590077312 0.72295257958762 0.52642616784447 0.66898488929076 0.4928712591907 0.50904807159001 0.57019873132596 0.62656442450075 0.65890364356625 0.54938915317469 0.57516255742713 0.62172584795167 0.83798977373882 0.60586813643345 1.0498968644685 0.71841339669663 0.50219339643269 0.68744413368364 0.55644829757295 0.60707760402302 0.47007188911399 0.55308709074504 0.62316880706284 0.5052106916074 0.524997699572 0.70876188364295 0.35448860120041 0.44662366842753 0.64712050942036 0.57048993966951 0.69342787848645 0.54789310897558 0.51622610451984 0.5425440717952 0.50830626093826 0.39932383206909 0.35679476600155 0.43949980810912 0.40881952961615 0.45505285423639 0.35903858681902 0.36164994978988 0.4934451856093 0.4632182960