# vtk DataFile Version 3.0
d-2__ created by libgimli-v1.5.0-1-g5991b6ac
ASCII
DATASET UNSTRUCTURED_GRID
POINTS 3065 double
14.646647106361	10.075660810886	0
14.704832811816	9.9744824778853	0
14.741572761215	10.143570688214	0
7.2181179570912	12.323267801616	0
6.9022853070009	12.159878277929	0
7.188568129403	11.864968865302	0
12.573766225573	8.2541691958959	0
12.179090385116	7.8396649872294	0
12.486344232856	7.7791041952802	0
10.909490913954	12.100065284392	0
11.157527929117	12.134706706046	0
10.807865018668	12.328963878518	0
10.246630703596	12.451261426896	0
10.370786380608	12.571785344107	0
10.283370652996	12.620349637225	0
23.486823884586	4.2589561787297	0
23.872774184789	4.3331786567402	0
23.693453371076	4.6788038393608	0
9.4017034496321	12.989518397958	0
9.459889155087	12.888340064957	0
9.4966291044861	13.057428275285	0
8.6528831969526	9.1661723501876	0
9.0889129509339	9.1546198128334	0
9.0172223973042	9.5848707535605	0
4.95	14.894536113346	0
4.9002967662305	14.698789777549	0
5.05	14.834347813918	0
7.8357302798552	13.980149844525	0
7.7483145522431	14.028714137643	0
7.7115746028439	13.859625927314	0
7.9373561751407	13.751251250399	0
9.2631921819019	12.842543338384	0
9.0547266763919	13.085654315995	0
8.8463136869378	12.696007878209	0
6.9615730037337	14.465792775704	0
6.9945996683525	14.319328169198	0
7.136404458958	14.368664189468	0
21.8222466978	6.2098629456668	0
21.734830970188	6.2584272387846	0
21.698091020789	6.0893390284563	0
9.5840448320983	13.008863982168	0
20.073932145557	7.181148808024	0
19.986516417945	7.2297131011419	0
19.949776468545	7.0606248908135	0
8.1805694002704	13.571297247173	0
8.3602246455282	13.688764085818	0
8.1853931903038	13.785892672053	0
20.765748039212	6.6761602926357	0
20.627236771482	6.5291852330617	0
20.823933744667	6.5749819596349	0
8.5857318789655	13.373982996136	0
8.5275461735105	13.475161329137	0
8.3890349057803	13.328186269563	0
9.2343819216497	13.203121154639	0
9.0595504664254	13.300249740875	0
10.311662072528	12.260060065814	0
10.363276453366	12.455311173661	0
20.948089421678	6.6955058768454	0
21.049715316964	6.4666072827198	0
7.6608988246309	14.077278430761	0
7.653388897389	13.960804260315	0
28.908739718026	5	0
28.508739718026	5	0
28.708739718026	4.8492605261212	0
13.77248983024	10.561303742065	0
13.830675535695	10.460125409064	0
13.867415485094	10.629213619392	0
12.119100932851	11.60049948175	0
12.082360983452	11.431411271421	0
12.206516660463	11.551935188632	0
27.358739718026	4.8945361133462	0
27.309036484257	4.6987897775495	0
27.458739718026	4.8343478139176	0
22.57224829691	5.6036960972777	0
22.798029869207	5.4953214203625	0
22.696403973921	5.7242200144881	0
13.080673936584	11.066292257453	0
12.956518259573	10.945768340243	0
13.18229983187	10.837393663327	0
28.458739718026	4.8343478139176	0
28.408739718026	5	0
12.308142555748	11.323036594506	0
22.547801874951	5.2633883138599	0
13.63397856251	10.414328682491	0
12.024175277997	11.532589604422	0
12.031685205239	11.649063774867	0
15.703145764949	9.6093634639172	0
15.615730037337	9.657927757035	0
15.578990087938	9.4888395467067	0
12.444587677104	9.0315078187863	0
12.75	9.25	0
12.46875	9.40625	0
10.45820210822	12.523221050989	0
14.654157033603	10.192134981332	0
17.902749122926	8.2149218349628	0
18.150786138089	8.249563256617	0
17.801123227641	8.4438204290885	0
11.332359384341	12.03757811981	0
11.244943656729	12.086142412928	0
11.237433729487	11.969668242483	0
17.130607666996	8.4717569577762	0
17.327304640181	8.5175536843494	0
17.269118934726	8.6187320173503	0
12.018062834866	9.3144627641309	0
16.96875	6.90625	0
16.518062834866	6.8144627641309	0
16.944587677104	6.5315078187863	0
12.759821286388	10.899971613669	0
12.551355780878	11.14308259128	0
12.342942791424	10.753436153495	0
16.577303041071	9.1237205327386	0
16.453147364059	9.0031966155281	0
16.678928936356	8.8948219386129	0
21.923872593085	5.9809643515411	0
14.508135838631	9.9286857513121	0
8.7098875559768	13.494506913346	0
8.6224718283646	13.543071206464	0
7.5190940340254	14.02794241049	0
-0.24940646753892	14.834347813918	0
0.05	14.834347813918	0
0	15	0
2.3	15	0
2.2	14.888006064741	0
2.4	14.810067208388	0
11.507190839566	11.940449533575	0
11.36538604896	11.891113513304	0
11.502367049532	11.725854108695	0
0.1	15	0
0.3	14.849260526121	0
0.5	15	0
-0.95957299032574	12.742247653798	0
-0.63660515661073	12.736198774421	0
-0.72105850144488	13.237141247116	0
2.9	15	0
2.7	14.849260526121	0
2.95	14.834347813918	0
1.2	14.888006064741	0
1.3	15	0
1.1	15	0
1.9	15	0
1.95	14.834347813918	0
2	15	0
23.155770102009	4.4707815868157	0
23.398627607885	4.6419549088128	0
22.971047224781	4.718656217856	0
13.779999757482	10.67777791251	0
10.633033563444	12.426092464753	0
10.491228772839	12.376756444483	0
10.628209773411	12.211497039873	0
2.0997032337695	14.698789777549	0
2.05	14.894536113346	0
8.8115134512622	13.265608319221	0
7.6871281808847	13.519318143897	0
3.05	14.894536113346	0
3	15	0
1.05	14.894536113346	0
1	15	0
25.508739718026	5	0
25.458739718026	4.8945361133462	0
25.608739718026	4.888006064741	0
0.95	14.834347813918	0
0.9	15	0
23.708017310135	5.0679061559452	0
23.57570494199	5.2584272387846	0
23.492391392804	5.1534065041647	0
6.5387045333462	14.528279940285	0
6.7500015991102	14.393833151611	0
6.7867415485094	14.562921361939	0
7.4860673694066	14.174407016996	0
7.3112359141823	14.271535603232	0
7.3148706664546	14.058847515876	0
6.0874157276122	14.951435706882	0
6	15	0
5.95	14.834347813918	0
13.954831212706	10.580649326274	0
7.5148776296588	13.813829200741	0
11.889880414633	11.599727754597	0
6.8666473488796	14.397882898376	0
6.8741572761215	14.514357068821	0
1.4	14.810067208388	0
3.95	14.894536113346	0
4.05	14.834347813918	0
4	15	0
3.1	15	0
12.993258208972	11.114856550571	0
12.898332554118	11.046946673243	0
12.90584248136	11.163420843689	0
3.9	15	0
4.1	15	0
2.1	15	0
5.1	15	0
5	15	0
7.1315806689246	14.154068764588	0
5.9	15	0
5.3	14.849260526121	0
4.6070433069999	14.368240644588	0
4.6	14.810067208388	0
5.1938980518111	14.524993056905	0
1.0997032337695	14.698789777549	0
25.708739718026	5	0
4.7	15	0
4.5	15	0
24.408739718026	5	0
24.316180298466	5.0287141376427	0
24.321832839145	4.8833962425865	0
24.708739718026	4.8492605261212	0
24.508739718026	5	0
24.458739718026	4.8343478139176	0
23.483145522431	5.2871413764274	0
11.573663228844	6.6878504141764	0
11.783228215591	6.953244789404	0
11.498511972069	7.1356956560705	0
25.308739718026	5	0
24.908739718026	5	0
25.108739718026	4.8492605261212	0
25.408739718026	5	0
25.358739718026	4.8343478139176	0
15.520804382483	9.5900178797075	0
15.528314309725	9.7064920501529	0
25.921540276389	4.4709363375124	0
26.277022110672	4.3098125374061	0
26.309036484257	4.6987897775495	0
21.069293459246	4.0184782266431	0
21.444587677104	4.0315078187863	0
21.46875	4.40625	0
25.214841666215	4.524993056905	0
25.508442951795	4.6987897775495	0
23.395729794819	5.3357056695452	0
23.358989845419	5.1666174592169	0
29.8125	2.6258505226016	0
30	3	0
29.625	3	0
5.8122409423352	10.291228465074	0
5.9889649985263	10.545789285321	0
5.5715926789368	10.688360310892	0
12.278524372398	8.4033099465931	0
12.266749266227	8.7424709281467	0
11.71080923903	8.5533847165846	0
26.458739718026	4.8343478139176	0
26.358739718026	4.8945361133462	0
23.147692779655	5.301064247891	0
23.04606688437	5.5299628420167	0
11.120787979718	11.965618495718	0
26.408739718026	5	0
26.508739718026	5	0
26.708739718026	4.8492605261212	0
9.409213376874	13.105992568403	0
30.458635160201	3.8690920654536	0
30.669330384347	4.1196162860905	0
30.364109258215	4.2441307961306	0
28.358739718026	4.8945361133462	0
27.408739718026	5	0
27.508739718026	5	0
25.6875	2.4642195584136	0
25.771866335589	2.1927504712561	0
26.053487503597	2.1539862920131	0
25.384151503975	2.7152844425934	0
25.6875	2.76491822766	0
25.5	3	0
9.2674085862685	13.056656548133	0
27.708739718026	4.8492605261212	0
28.308739718026	5	0
15.382293114753	9.4430428201335	0
29.308739718026	5	0
29.358739718026	4.8343478139176	0
29.408739718026	5	0
1.8061019481889	14.524993056905	0
29.658146185565	4.8343478139176	0
1.7	14.849260526121	0
1.5	15	0
30.090078193556	3.9711909286582	0
15.173827609243	9.6861537977444	0
15.3534828545	9.8036206363886	0
15.178651399276	9.9007492226244	0
18.23069193846	8.0845247930538	0
18.238201865702	8.2009989634992	0
18.11404618869	8.0804750462887	0
4.8	14.888006064741	0
4.9	15	0
16.402471585846	9.2208491189743	0
16.394961658604	9.1043749485289	0
16.489887313458	9.1722848258564	0
6.1791038580454	14.704649136022	0
17.36404458958	8.6866418946778	0
17.451460317192	8.6380776015599	0
3.6	14.810067208388	0
3.7	15	0
3.5	15	0
16.922142161486	8.7148679353872	0
16.4287009421	8.6628888321103	0
17.302858218222	8.1772459009316	0
17.553086212478	8.4091790074343	0
14.056457107991	10.351750732149	0
14.828988488828	10.095006395096	0
5.5	15	0
5.7	14.849260526121	0
21.1875	4.5625	0
20.90625	4.71875	0
20.882087677104	4.3440078187863	0
6.8150329680421	14.202631790528	0
6.4739761191302	14.193291511538	0
15.804771660235	9.3804648697915	0
14.930614384113	9.8661078009702	0
4.3	14.849260526121	0
19.199774869435	7.6667917392027	0
19.112359141823	7.7153560323205	0
19.075619192424	7.5462678219922	0
9.9706052236163	12.250719786823	0
10.035333637832	12.585708215571	0
20.860673694066	6.7440701699633	0
20.773257966454	6.7926344630811	0
9.6856707273838	12.779965388042	0
-0.43250979015094	13.369587523725	0
-0.85662454898514	13.581460773951	0
22.514062591455	5.7048744302785	0
22.375551323725	5.5578993707045	0
20.742913400511	4.047377368749	0
21.292928542093	6.286653279494	0
21.472583787351	6.4041201181382	0
21.297752332127	6.5012487043739	0
24.1875	2.7176993931111	0
23.626112873365	2.548251847651	0
24.1875	2.3788043021908	0
21.958672828761	5.41136391053	0
22.167085818215	5.8010103483154	0
21.673644598829	5.7490312450385	0
20.175558040842	6.9522502138984	0
19.891590763091	7.1618032238144	0
19.899100690332	7.2782773942597	0
19.017433486969	7.647446154993	0
18.878922219239	7.500471095419	0
18.325617593314	8.1524346703813	0
6.2866035579579	13.872661794752	0
6.1724083866651	13.36768415665	0
[...]
CELL_DATA 5846
SCALARS Coverage double 1
LOOKUP_TABLE default
2.4051910745258 0.91983570548923 0.76712782017528 2.3209314982875 2.8627947051341 1.372204064224 2.4047541444257 0.63876591320278 1.8942103849959 2.812973275411 2.2796847577933 1.9662749792703 2.3527077118227 2.8315611483123 2.863019823005 2.8538450060764 2.2376992187278 1.957083176701 2.0296064062767 2.2540454075594 2.0334616425262 2.2854843649683 2.8519553652842 1.9937046193224 2.4339067912765 2.8736178760719 1.6727962024487 2.257304101976 2.360379117265 2.6592743077571 2.3479446324515 2.0143968571852 2.0618944045874 2.898669231806 2.8772585722407 1.0487456221693 2.3817774914972 2.8938585217326 2.9310414175906 2.316961558486 2.901248398999 2.0323129245892 1.0087509072081 0.99443717860004 2.3979680581584 2.0043944392803 2.3488093280191 2.270696616522 2.0540391503889 2.8476311771798 2.4070974757229 1.4252794714275 2.095675422505 2.2860249424644 1.7863954977066 1.7575818324738 2.41501919186 0.16708500503967 2.1868274231155 2.1971262191161 2.7098516207171 1.3908768910221 2.9350586418039 2.2910649838056 1.7715472231373 2.205666315272 2.0257981925227 2.2466359142899 2.1570232840062 2.7242158138002 2.2754424135282 2.6972592575148 2.3206489940081 2.3164605472208 2.2244703080497 2.7313025277072 2.464794183925 2.9072174524193 2.0077047218526 2.4487530943016 2.2564563139305 2.0428177664794 2.2464949922985 2.7497534651439 2.4447900831134 2.92008116584 2.7741861724955 2.7303834897614 2.4471619105625 2.2252756761582 2.7427856541251 2.224369601772 2.5163197440187 2.2251914151704 1.8444343848697 2.0000898996342 1.6304782619896 2.2229227585191 2.8447092123281 2.4019663827747 2.2230053218 2.0504242403734 2.1431250102139 2.840192122181 2.2545541296797 2.886523604086 0.54783812969567 2.1251689127678 2.6950988584896 2.9080381148419 1.5401380135902 0.8753166294005 1.7352086939356 2.8487802771467 2.745114535489 0.25321217384959 2.0045129170121 0.57443695909399 2.2186680052397 0.83919026137126 1.737241965689 2.2210135655923 2.3992411158394 2.1632532333969 2.140263291751 2.8958080535984 0.47554518170481 2.1381098453042 2.6781242183864 0.49530517124685 0.62488500764937 2.4114602578167 2.307139414849 2.1009857472167 2.6820748900986 2.0388421505569 2.8684685649304 2.2494938456776 1.713653292996 1.5366816722962 2.1104706720381 0.47098276828761 2.8895316029134 2.2843463785361 2.1733008173338 2.4175425822466 2.2910879610695 2.7870907597542 2.918687363761 2.8850584934414 2.0511462799858 2.7229461700126 2.8836905816327 2.1010550310115 2.1135225106169 2.142562806398 2.1110566058636 2.4240151158106 2.8330443578142 2.1477297384749 2.3677716664549 2.9041048655431 2.2942221522291 2.1566279563059 0.95942799176305 1.9302134098223 2.4011305349167 1.8376332801898 2.3540025456177 2.3706577012748 2.8350786348229 2.1995237569768 2.8593341534061 2.1047932631945 2.8640536380732 2.8379217815498 2.3355534658188 0.33205879291109 1.9154406709075 0.82556556490318 2.1829809107722 0.62532156047245 1.813196494833 2.3070839717167 2.8859841247387 2.0615897664917 1.9994525966932 2.90597025789 2.4154580745475 1.354679223693 2.3315404705004 2.2826981447588 2.8891052640115 2.0570918906906 2.3811963091291 2.3152821536469 1.6067338376839 2.8827008415302 2.3227409506677 2.3746702467591 0.4075043102638 2.281911886128 1.9384212710683 2.4267980888082 2.2407621564978 1.6192857428094 1.4838355217913 2.6932426563984 1.5134251020391 2.6907960044655 2.7091255208166 2.871979064984 2.345532939377 1.7806834786572 1.9833416048926 2.9164831462796 2.4121178126933 2.433503167922 2.1298894407852 2.4449463850471 2.2927271802242 2.3623806983799 2.2059590868158 2.381852273179 2.2169191630217 2.4490986270144 2.2948149502817 2.4353868386823 2.1285651066937 1.8305534312895 2.1150925360618 2.2461782148841 2.2682282971315 2.8156080073963 2.8422802024509 2.8550395185286 2.3182604993981 2.1356252467832 1.9472331920828 2.1711275992764 2.0092962935408 1.9812096017689 2.0878432502718 2.2287371610499 2.3984211466579 2.3879086382242 2.4380549136943 2.4232680683613 2.265665378499 2.3220873478386 2.1488008862702 2.3485802192783 2.0356964852469 2.3163771035401 1.9718978564448 2.046055216938 2.0706771121194 2.3697310970669 2.4154668713343 2.2709642305232 1.872628534323 0.69692104894075 1.9103183587923 2.1566624927592 1.7724086071754 1.9835918513833 2.3237348875582 1.7440671012012 2.1386685273009 1.839163145715 2.4561073143515 2.0369500848857 2.1343767768879 2.462228707239 2.4725182256557 1.4379232801954 2.0580303846219 2.3905325615726 1.9390248680055 2.0838406288128 2.4136862003067 1.8561146782763 2.1316087267256 2.4771509883375 1.0619036285198 1.9343265928021 2.4669077160679 1.8829285101809 1.8210640408268 2.1620404058287 0.70938464661235 1.8838695496032 2.1981719892529 0.89085284094995 1.9840431453716 2.2561817784226 2.4538797377617 2.1812653095059 2.011128208806 2.3556922684872 2.0589402294885 2.2949324069396 2.3779449641543 2.3434250124978 0.74061493668837 2.1370780112364 2.3970624427222 2.3773727103313 2.4018525823256 1.9785356579951 2.2127474679772 2.0421830536075 2.2688903077868 1.9340235913469 1.5795807462181 2.2244107288705 2.2431810723481 1.9256733064356 2.1543864811391 2.2430116756838 2.1030274199181 2.1828138403631 2.072730301686 2.025633965495 2.0419105057849 2.1848611631764 2.2471443349426 2.3448116806519 1.9320158012915 1.5154960126016 2.2506723791677 2.3483858319325 2.1691115954863 2.2798316663795 1.3468539853735 1.5513948331721 2.175431064542 2.285238707691 2.2485934079099 2.3438234232441 1.8724994121585 0.92861435466958 1.9019889460252 2.3108371725744 2.0493310786163 1.9681723392754 2.0935370005127 2.4211002284107 1.406030641326 2.0238763391803 2.2303072594967 2.2214872341618 2.324354587955 2.1125748030038 2.2346100221247 2.117724342045 2.4419191207012 2.004920150814 2.0963378143008 2.1092672284651 2.0432265985768 2.2360627439632 2.3265824249651 1.87842410958 2.2097242748167 2.1902478484177 1.4048536872297 2.2179886552687 1.3844169103197 2.234393109346 2.3287215102118 2.1415646808481 2.25387423834 2.0623711239548 2.1269661315418 1.9314101456272 2.2767066577873 2.1805785200267 2.2384209453028 2.0906274978776 1.9939485581464 2.0918634125996 2.0340833074058 1.4841097479063 2.4302830870217 1.8963832709833 2.4423399512379 0.88056242732896 2.1850702747268 2.2719534332486 1.9008827553604 2.209446165226 2.2537980129981 1.9950748161379 1.5458491547901 2.1063817924515 1.884678553853 2.1125248369938 1.9676379140738 2.0224565958651 2.1915851447172 1.2024080376223 2.2644475825389 1.8450883794989 1.8226960092857 1.1322330680497 1.993125111908 2.3204762489732 2.2297588768446 2.0803972190094 1.8042301584914 2.1562738594145 1.9832557321762 2.3015826672498 1.9680516468699 2.3044018619386 1.9870345650183 2.3146475967625 1.9118785128931 2.2239574734201 1.7931563157195 2.2420642086056 1.9799550715 2.3188692640754 1.9767239492133 2.3077744067254 1.6356407272704 1.9722617942798 1.6943218473825 2.0225948645338 1.9652060160667 2.2888054888347 1.8720644116265 2.1726903349462 1.8870787315903 2.206877530147 2.2286227540621 2.2708718611524 1.9250493561306 2.0211161985332 1.9626529830791 2.3153511506485 2.2817068727871 1.7738492188859 2.2643076295313 1.6882096481812 2.1050800915743 1.809461100375 1.5275790383179 2.1468989550937 1.7551171770878 2.1247525875183 1.8368388306206 2.1244780319391 2.0730877125309 1.9338027006441 1.8913205562412 2.1315509396314 2.0284139905884 2.0409482787792 1.4871366110142 1.8034478886858 1.7900648462046 1.794933776651 1.7771186073303 1.9640939918049 2.3374630066418 2.1826229289698 1.8228625547667 1.8470537064464 2.2529668762545 2.0716949851525 1.8925569030791 1.9533349965556 2.3425989967985 2.2183792590543 2.0865710838124 1.0050124359548 1.168332331489 1.1224461811545 1.0030763715809 2.2449932522535 2.1229606908461 1.9538297035372 2.2899249170774 2.1998493847072 2.0367351373862 2.2447363010166 2.1051690012948 2.2079368007855 2.0404095708286 1.9693711268162 1.510198042444 2.0920840768323 1.9551757921972 2.0616171509741 2.0391353258208 2.0081227275556 1.8378149605109 1.9787448049671 1.8809226414503 1.9403138127559 2.2443419196437 2.140511338274 2.2076408013476 2.2531539993274 2.1308377932973 2.2110478467963 2.1627747774982 2.0646328709481 2.114478707211 2.1985886896336 1.9328138752383 2.1393254162487 2.2658770244124 2.114617788235 2.2168763880914 1.9051251004928 1.8535182277352 1.8314188492568 1.9493541252141 1.895706663242 1.9046157370043 2.251374225772 2.1702254141921 2.0069556449398 2.2425593416266 2.1098259014855 2.1897053940503 2.1327152353541 2.0370095184809 2.0633884062768 2.2268861951097 2.1912424063617 1.5828774993242 2.219950722937 2.0495621959954 2.1721485409314 2.2659516391113 2.1153776202947 2.2138915440806 1.9813776903681 1.8818046351451 1.43135786318 2.2530950655271 2.1169581464173 2.2063819476552 2.1479313989085 2.0495912265092 2.0966046240522 2.0955328751352 2.0981877837725 2.0475408695013 2.0509899681585 2.0213831192005 1.8573333518929 2.2070137748008 2.0622254208239 2.1585228346399 2.2351004174226 2.0731935618575 2.1827391647081 2.2326277319385 1.9251411470959 2.1728133294088 1.866152877827 2.0533119176777 1.7404179127518 1.6212334095209 1.6525263231044 1.2845409668701 1.9353962266873 1.9952723590461 1.9417010913562 1.773730727481 2.0346121132614 1.6737908167709 2.0751671518671 1.6999844422166 1.3908837097493 1.5394843194266 1.5415962487165 1.8121804953401 1.4244997427851 1.5612311258519 1.7119208220329 1.6070197878914 1.7673297795073 1.529528652144 1.9953920792636 1.4495427931327 1.8307863156682 1.6729504376543 1.901826516608 1.8855149555918 1.9658427889256 1.8128415144847 0.98158856239923 1.7161231262379 2.0677697776684 1.7098592016675 1.7945475592105 1.6213996942416 1.7475887286744 1.6612972282886 1.9780385309699 1.7353161089077 1.7960473394523 1.3482799499948 1.9813520124764 1.3670554974285 1.6005959973154 1.529546536841 1.9159655761077 1.9484945667745 1.9083685268205 1.7911480698559 1.8613161211054 1.8346849571933 1.5939800902784 1.9115132380813 1.7506179500251 1.9794669508808 1.8153640311138 1.8297623125373 1.6001225358486 1.5639220598732 1.7646054883221 0.85915575411936 1.6157403630715 1.6465338854293 1.8025855311503 1.0338913578536 1.7935929443318 1.0992517372311 1.9880025586491 1.6908360112531 1.3590925278926 1.7467144666208 1.2551795701043 1.3618996977072 0.71445459746235 1.0095586619926 1.3439790658326 1.7897553700115 0.48621797388661 1.6556998234979 1.1949985503702 0.93531294426855 0.41593945984788 1.0672481992115 1.2645063029408 0.7372655165277 0.53158985190977 1.4177716171774 1.3835249424062 1.3691436644775 1.9976466212204 1.7793967803512 1.6672142400194 1.4874021394875 1.4988495125267 1.7871817223642 1.9593925262894 1.2983862043382 1.4680805650295 1.5306016135661 1.7668362186593 1.0321289896525 1.6111328023246 1.7902133687212 0.86979747930814 1.0906869427939 1.2720013479421 1.009988304058 1.4612401175613 1.8015945180806 0.81329738218127 1.4485573773788 1.6809539768422 1.5753507945298 1.4921430618188 1.828592211564 1.18884664231 1.0172175598238 2.0003679196263 1.4069111126154 1.4208091141996 1.3992892324587 1.4448041942785 1.5545244042424 1.6208550461584 1.6470797059095 1.40835934305 1.3376069166296 1.5959371861803 1.4339965847723 1.5837965545357 1.4955546253044 1.5374270477546 1.862212812357 1.4245042477063 1.383625666272 1.2398537224566 1.1684661426868 1.6164277987997 1.4164158328672 1.5547435991705 1.7476304030274 1.9009652554918 1.421193150311 1.0630284291469 1.3444916725191 1.2917546988698 1.0674879506088 1.4230729980534 0.98258733846471 1.6900680246398 1.0437457571521 1.6034402024437 1.5274222082944 1.966902107521 1.6931772045705 0.99889002035438 1.8264554279559 1.6961734655195 1.5199647249721 0.38195991778732 0.57485689783085 1.3964467096558 0.93662026065118 1.4727657053256 1.0434847016114 1.3991237115852 1.5614730419192 1.9194344021689 0.90477784729185 1.4678073169183 1.1847972389151 1.1975188329521 1.457373024997 1.4005701811992 1.3724362001105 1.3354717543669 1.4879261305659 1.3710168319525 1.5088317488645 1.1306733624158 1.2363485206105 1.2201507381938 1.4599569579215 1.5023119097716 1.2903881215726 1.6367014887395 1.4554712340105 1.3840313233219 1.5733097112227 1.3777884767987 1.5325977694388 1.240852864846 1.6162434235412 1.4873502308103 1.6185951262338 1.4065840113021 1.4733601918647 1.6030905251122 1.3227234829569 2.0232637112186 1.4670208525521 0.93584454569423 1.4724647327037 1.4020862677699 1.6966654151651 1.2357288334016 1.0108594491587 1.155287865542 0.89551604505618 1.8146976097586 1.0523199678483 0.96067451523241 1.4358061870418 1.4111220879583 1.431748333414 1.8967413478713 1.5373831313105 1.6650233906273 1.4369197391599 2.030167936436 1.8185401985666 1.4503254847879 1.3918940881671 1.4456811706951 1.0484337595357 1.4476293177273 1.5151222366869 1.5400211820951 1.4506057580177 1.4266666917769 1.5104692241817 1.6767013019966 1.8916581817015 1.4542515771113 1.3969466410682 1.4956987015892 1.4824891865039 1.737306133812 1.7078329053106 1.2447394109077 1.6180656415868 1.4886075514719 1.2613062726707 1.2252271060177 1.2031453637376 1.1549927043422 1.2203525548193 1.520462929535 1.4715922514813 1.5200704219126 1.5114629897767 0.99703926748308 0.85268062559729 0.93451710118662 0.92234752068067 1.3434835664403 0.95727987214426 1.2747058335645 1.307021182041 1.2653335794556 1.4595979041301 1.2473683911564 1.203650040979 1.1425142128358 1.2058293031796 1.2238691220664 0.72324758231832 1.1764258784063 1.0517533127064 1.2696679094565 1.3722509449778 1.0386874635877 0.68790196308857 1.1378132249604 1.1868696594102 1.0425248290583 1.0117991291406 0.87431090724114 0.87910905873025 0.99505429836065 0.75736993364085 0.85499975373232 1.4510341844594 1.2410474246281 1.1321029668755 1.4225592389176 0.76284806343674 0.94656974945358 0.9988927452505 0.80197119241405 0.8532459522486 0.85900567870629 0.78856655212224 0.70912724764859 1.0044571812624 0.89792434944349 0.95744462343359 1.5240887512081 1.1620972845042 1.6702343106008 0.70722100937054 1.7044675051393 1.37885028568 1.1178445114835 1.0635086824633 1.6440583761058 1.4837891895929 1.4387331720965 1.5379538558694 0.52528732790791 0.74243465225313 1.4510656982313 1.6313090268799 1.6446886996834 1.3820772049656 0.97099526331072 1.4068528506923 1.8322890073804 1.5540342269919 1.6828290595814 1.4010506220369 1.4504175837583 1.3927700436884 1.4242169979587 1.3680382985293 1.0483931225675 0.84330830154793 1.4371520561516 1.9110542519673 1.5100950302159 1.4989418164807 1.4476209275459 1.1576782520993 0.53314562722172 1.1949272360132 1.4092349166925 1.3744065159401 1.4980887605418 0.87716025750645 1.4800500553889 1.4510119955471 1.4762082370907 1.4327427870606 1.3776441701727 1.4404658668353 1.4216042150426 1.4407331036294 1.466987996934 1.4645620656779 1.407078904404 0.65645597548114 1.4603899045411 1.4103169517122 1.4567346843607 1.446668899096 1.4621047459848 0.90112829301205 1.4654582202463 1.443819142331 1.4688523320197 1.4411981323305 1.4764554217591 1.4415664947493 1.4770435237003 0.96731245164456 1.4056688072743 1.3960538091248 1.4023162664879 1.4270271710994 0.77662083473137 0.9055573844267 1.46315760987 1.4505529143045 0.93801911139321 0.97977245306712 0.92541613348775 0.86983152652376 1.4353490895723 1.3999225544844 1.4659965294589 1.4816567506429 1.4172087033204 1.4967191370377 0.98438910524153 1.4203363317759 1.6306691069442 1.5569772462308 1.4865628856197 0.94473462360818 1.5002546635922 1.4749908075907 1.501264156753 1.4272731076579 0.87497193167005 0.87281208612537 0.88759517042593 0.95457830705328 0.82669982873235 0.99371497190743 0.81443468487677 0.87239592061948 0.82262207034483 0.79228867945971 0.87356490678387 0.90642588540566 0.78785644473205 0.7821339304813 0.85182530288577 0.94040797143713 0.82530673579357 0.83159644498344 0.74820828307148 0.67921991138169 0.80263770363962 0.82537040830056 0.71602673550336 0.7145169956913 0.80472129881123 0.90052011844904 0.82828078966407 0.80554151553581 0.893723450699 0.77768540972649 0.78845697520875 1.015111052338 0.78255529433815 0.76148792132619 0.75630204892641 0.91473034279766 0.66561583728675 0.77127014359449 0.7189956640655 0.72762352157879 1.0146544065768 1.5060243748793 0.81344132840376 0.71328911026287 0.64146637927992 0.67965897517514 0.76338667812414 0.70545388579287 0.69049273125024 0.70560112134294 0.6429951737306 0.97358250187479 0.63219575010225 0.57292963782345 0.73166376277711 0.67967013775741 0.83120417116849 0.99892593496578 0.83281899538267 0.80983931673465 0.74063381146015 0.67035351073545 0.66860337301172 0.69016207601538 0.63610337006645 0.66840042638559 0.68416073471444 0.62059516119507 0.74874638131143 0.69246216940781 0.60916344929685 0.53809365109334 0.88640705659672 0.72396566581049 0.61988689518172 0.71879295205394 0.9550337895143 0.95736111826761 0.90370459128935 0.77247023879244 0.60723891801116 0.66428917336175 0.86534476590889 0.78475995988474 0.86397771461998 0.92954466443224 0.80259841436431 0.71631739996575 0.89903432441102 0.83565914584817 0.87221191808428 0.77186880596911 1.4172178675353 1.3938475914595 0.58519760253131 1.0545918983799 0.55583549034102 1.0654080822584 1.0663058284657 0.57905535311267 1.0385890687278 0.83742765643897 1.0461207016713 0.94609543795699 0.9957734793415 0.82184086019164 1.0996899736564 0.98977116299978 0.98767683189595 0.92337089831834 0.99718896560875 0.61753657714604 1.0802657451148 1.0742300218826 0.54865472044849 0.65833596885465 0.93654112658398 0.93591935676793 1.2162905512232 1.1096593771783 1.1119842081916 1.0387608609051 0.67900318751465 0.61453033367168 1.0627592360231 0.60250994710492 0.59194232021901 0.68778163840471 1.0781489531304 1.0786871975933 1.1349199190292 1.1332530122028 1.1456210057111 0.80163895192181 1.1650583257698 1.0612151270445 1.1230352083695 0.55830420432523 0.58006463038232 0.64615157130062 0.6422520101041 0.54424947306168 1.0378412048532 0.66291323631805 0.66695563247483 0.52357777414426 0.49404157090992 0.5317627758428 0.50828919958248 0.63034587292738 0.5199647423252 0.52277801728306 0.44467314188858 0.5565493877813 0.49778326571622 0.55090486368369 0.42243233930063 0.58174835286842 0.49996915822925 0.53625070828988 0.55098582899086 0.47721267401329 0.37545104634224 0.52851215205934 0.4826740666293 0.59468520218702 0.45919399583495 0.38352755861623 0.51888414940595 0.62808971617714 0.43837108752491 0.48834818030559 0.58522745782834 0.70061193277182 0.40267114185481 0.30618187514261 0.4999547232016 0.61801699629655 0.5884159472634 1.2584311105255 0.75354096070711 0.77540636084597 0.47481852793102 0.35239191153862 0.45354199038322 0.43954448023283 1.4700007583476 0.48900362427148 0.44410827136351 0.2565357339652 0.42749088031098 0.44949641547297 0.5788007593085 0.40033705956195 0.38001548893128 0.50189380948478 0.34728580582527 0.63832819636492 0.5302167660326 0.61760342413868 0.49207470543036 0.60900840402904 0.38018960445852 0.31330130893741 0.37857652585018 0.53584183655185 0.44236779620209 0.40537164018506 -0.156985342841 0.40648896980161 0.30770600282965 0.28404255259367 -0.11132780325185 0.17229468111991 1.0453724776685 0.83238606786467 0.62194330297074 0.85776490433014 0.55789275843708 0.70216717156229 0.63019446409371 0.80794753940562 1.1892251261839 1.2379028281224 1.6527777568282 1.5103775655206 1.507678015832 0.96898021557007 1.5093327851101 1.4627590634395 1.4865537389938 1.0257944678306 0.91559438664195 0.94717450615792 0.92139872356715 1.0037888334148 1.4103910851842 1.4591326515179 1.4291341780523 1.4275161640459 1.0026718036197 0.8071082123326 0.91103356383195 0.95493257229959 0.86049157823465 0.86812408626217 0.72962992314801 0.73342141997792 0.84050309973358 0.9343066068843 0.77226271320606 0.8783226567337 0.87242386906989 0.83519105104703 0.73723145004709 0.77192132370634 0.79724054012675 0.70240509243076 0.77644277869129 0.75765828650231 0.66083727509362 0.65595937666867 0.82140063379358 0.73831442946666 0.6081393010524 0.67407074287042 0.67175867775839 0.7130672250321 0.6312642776098 0.54291951203877 0.63239945367952 0.62751987171638 0.6722848494218 0.54290834496918 0.610029