# vtk DataFile Version 3.0
d-2__ created by libgimli-v1.5.0-1-g5991b6ac
ASCII
DATASET UNSTRUCTURED_GRID
POINTS 3503 double
375.1578521782	-10.539151806402	0
374.30878561874	-11.333149474909	0
375.3080427115	-11.55073527979	0
353.15258822552	-10.422449633894	0
354.18292561154	-11.057857317938	0
354.09071294025	-10.152986335986	0
314.51658123431	-21.368484601131	0
314.96475377565	-20.187401839325	0
314.09486661769	-19.791134994325	0
335.06063641948	-18.727786604686	0
333.91590926067	-19.498034653476	0
334.91220138096	-19.749030751392	0
312.87716728938	-15.00604677148	0
313.69828752852	-15.580536085108	0
313.98359442208	-14.619871526021	0
341.70988577375	-28.660260789144	0
342	-30	0
343	-29.123588643481	0
348.7531633215	-17.546589094766	0
347.86234665953	-16.451218929466	0
347.86425349804	-17.846833147372	0
375.15001567568	-2.6543707282398	0
375.08920457871	-4.3757358784135	0
376.22037756121	-4.0797248193676	0
331.24701524002	-29.00972685821	0
331.5383179196	-27.800276696779	0
330.46657948895	-28.04094051305	0
337.48803825856	-27.051366115864	0
338.32343370468	-27.334799680269	0
338.02796277779	-26.445571565557	0
357.20605079121	-14.709569472276	0
357.85756660241	-13.654967184957	0
356.78162696934	-13.544870688863	0
328.54735744887	-23.256550472402	0
327.77170479073	-22.704596806248	0
327.40759358459	-23.530845980281	0
346.62961148435	-22.534259875623	0
345.7207320123	-21.54193898275	0
345.78582542797	-22.39470673296	0
347.28490189136	-26.096656943139	0
346.55078637646	-26.971375159464	0
347.59285754109	-27.19630273383	0
333.01506724416	-16.343217962281	0
333.95176015367	-16.823038042938	0
334.02850253057	-15.519019049605	0
341.11027567368	-27.864123774538	0
341.93773697254	-27.308539202209	0
348.23976421434	-26.422192246908	0
348.23606287066	-25.506374143487	0
340.7815083627	-22.561631757902	0
339.95527348683	-23.411233939364	0
341.08560404588	-23.767381049592	0
328.20142864825	-19.8594185078	0
327.41468444396	-20.437670481708	0
328.6128679825	-20.679263753271	0
344.63906255701	-27.131301422613	0
344.91507157142	-25.969027191901	0
343.75330397773	-26.247161011632	0
342.60533908547	-26.367001824738	0
341.59001971585	-26.354536308704	0
342.77127924898	-28.039077133929	0
343.87641950859	-28.123595788103	0
342.98714802434	-24.466235767669	0
343.99938007848	-23.757278462125	0
342.82766487631	-23.364445574604	0
343.3902395715	-27.213238459131	0
344	-30	0
344.47000762137	-29.026773541979	0
345.4283684451	-28.527152251101	0
345.03125	-30	0
342.10804674891	-25.516345982921	0
343.09257647957	-25.476143512093	0
340.2340649423	-27.389127803649	0
341	-30	0
345.56872553926	-26.738162001498	0
346.41565706211	-25.356068680999	0
344.65932317038	-24.802127402381	0
341.28276686316	-24.825461740858	0
340.76171399362	-25.767221706505	0
340.5	-28.8771229825	0
340	-30	0
341.86534410235	-23.171226400586	0
342.02816341031	-24.13915449407	0
345.86814224652	-27.661654107097	0
346.75696928487	-27.857963937904	0
339.71109539013	-24.570917083129	0
339	-30	0
339.5	-29.104597936777	0
347.09375	-30	0
348.125	-30	0
347.94100745271	-28.986442887947	0
346.11461824861	-29.104624705985	0
338.99376444428	-23.814330701581	0
339.11289562393	-25.324175349654	0
339.80007322831	-26.056412468667	0
338.16751139807	-28.66810303358	0
346.93840036055	-28.74994701989	0
348.27804492159	-28.013017481755	0
345.67470620743	-24.64403880213	0
338.21670176545	-24.974779378868	0
338.25762748325	-25.727537191637	0
342.51081497097	-22.449493860525	0
341.77753932575	-21.8171669437	0
346.00484330547	-23.221435925561	0
345.08565052908	-23.802012599889	0
343.52096580134	-22.493405775632	0
343.07764533576	-21.050837360621	0
339.03989993998	-20.139486053589	0
338.05817368029	-21.216453195392	0
339.57790204509	-20.912859002522	0
347.59468273575	-24.852640236576	0
339.75341858333	-22.388374595877	0
340.49294446791	-21.137022665224	0
339.32785194185	-27.993107166835	0
339.44621372508	-26.908666170907	0
349.32293879219	-28.919860490172	0
350.1875	-30	0
350.38733685352	-28.953973165014	0
346.67900715046	-24.340483727014	0
349.2451130525	-26.505912038336	0
344.79971102888	-22.731845314405	0
350.48339173151	-25.804360955916	0
349.06582591228	-25.67780995318	0
346.99172996874	-23.389488736344	0
348.23524534544	-24.087130531198	0
348.87668944105	-24.851901763769	0
349.83477727934	-25.067106214402	0
339.00599169901	-21.661504806153	0
338.68805901562	-22.736146736974	0
341.6699128258	-20.396834493094	0
343.00311025676	-20.002223728293	0
337.64588799407	-22.601008203293	0
337.97354771478	-23.599518077485	0
336.5696025807	-22.61171969468	0
344.01022177956	-20.303674235911	0
340.54565406524	-19.914996930877	0
337.10364236907	-24.462448472632	0
336.20853425439	-23.62568946289	0
342.68199931048	-17.840113055478	0
341.22406946366	-18.187754786985	0
342.34580285034	-19.1818012753	0
335.14053768741	-22.674110553206	0
337.12375843727	-21.688997464684	0
336.33717320029	-25.697849369013	0
336.05041231577	-24.691980125629	0
335.82963242213	-22.06026340325	0
334.93358930147	-23.981495255923	0
334.09073184732	-23.178006286527	0
336.33951510241	-21.088377353552	0
334.06417241352	-21.777153276644	0
332.94057652017	-22.995946034449	0
336	-30	0
338	-30	0
337	-29.19774860681	0
348.74329295316	-23.420805856725	0
348.6792793684	-22.585339995972	0
347.95812535801	-23.128209221327	0
350.3501812348	-24.197671888416	0
349.45939240383	-27.707232445869	0
351.734375	-29.144248289179	0
352.84882294577	-27.889530040813	0
351.21875	-28.288496578358	0
351.34132639573	-24.395632880694	0
351.20928807154	-27.311279310884	0
351.88182217129	-26.602236998598	0
349.21517795501	-16.794133156697	0
350.32058079816	-17.10394245671	0
350.10490030143	-16.258997873637	0
345.48526666967	-19.459093843261	0
345.58821240599	-18.247993180035	0
344.35288139517	-19.158887816403	0
346.65649586073	-19.484436504778	0
346.25126390996	-20.541681308597	0
347.61936264003	-20.459777442039	0
338.81243336677	-26.237938671526	0
337.25429811215	-26.200727719844	0
337.48612896069	-25.391990373751	0
344.3789271865	-21.440339481862	0
347.84391578498	-19.275149678956	0
347.09871655868	-18.52029622732	0
337.60176175697	-27.926173010404	0
336.67505358025	-27.817799716283	0
347.86829711434	-22.189009469588	0
348.66449579864	-21.682814900134	0
347.05594685479	-21.709163303783	0
345.11942480936	-20.572008845279	0
349.70082943376	-23.423140079513	0
335.314284051	-25.479440285085	0
334.5	-28.976922582051	0
334.33986495096	-27.849516635116	0
333.34910807472	-27.740283311285	0
336.53572602175	-26.855611412651	0
335.54331808192	-26.911276082219	0
335.81738102898	-28.747995168995	0
333.93056661948	-24.189841038622	0
334.26590313415	-25.217182746704	0
335.33231591928	-27.881566878836	0
343.34799546399	-19.052385492896	0
347.86639712078	-21.306749084285	0
332.44066622941	-25.866570505767	0
331.52450997757	-25.650873015122	0
331.75543805194	-26.723521764444	0
332.96839617983	-23.980280207154	0
331.88423136108	-24.781121204831	0
333.22370725625	-24.931334333518	0
334.54274587168	-26.337090073084	0
348.37824841791	-19.954693469505	0
348.97717262232	-19.284064923524	0
343.87964211248	-16.305048663342	0
344.02122269338	-17.494228580989	0
344.5770577457	-16.833546828862	0
335.36702793844	-21.261729140618	0
334.35728045579	-20.613703982693	0
332.76716750013	-20.831752502658	0
331.97935942445	-22.7427623764	0
331.37603452391	-23.532723979393	0
330.45030150643	-23.147364895966	0
329.85375531869	-23.953352419898	0
329.62823670155	-24.971853382768	0
330.72649853393	-24.524773576581	0
333.28642636179	-26.745495841665	0
334	-30	0
332.89841818658	-28.629333215161	0
333	-30	0
335	-30	0
351.1273795905	-22.886616896716	0
349.71557672976	-13.62730617622	0
349.79927624224	-15.266743088145	0
350.74835931206	-13.720487022207	0
348.5970701767	-20.790999731451	0
344.3667220018	-18.290761620276	0
343.49995917222	-18.193526018748	0
339.89448278604	-18.879573750623	0
341.31155237406	-19.218968735785	0
344.92337033645	-17.624445414311	0
336.05068363238	-18.436618124115	0
335.86757826531	-19.371073030239	0
336.74969929197	-19.083232889388	0
331.77701714214	-20.558836602387	0
332.59541827209	-19.522254411682	0
331.6194112034	-19.298349428515	0
337.5749989037	-20.287490296183	0
337.55751687101	-18.626702264589	0
337.34493491814	-17.714790994284	0
329.46044245548	-22.987170320251	0
328.98001713547	-24.018429056599	0
330.77827746474	-26.224462347356	0
343.0048142347	-16.324415146777	0
336.62798969546	-20.003111265311	0
335.69751075461	-20.337636024226	0
332.70858064783	-21.925490941256	0
331.53111948511	-21.855563849241	0
329.84415997071	-25.927850793118	0
328.95499476284	-21.890591080509	0
328.62855296423	-24.954454290973	0
332.51290758714	-27.293603906812	0
330.15948975148	-21.806002538944	0
330.045090233	-26.914273864359	0
329.14845038392	-27.891882928412	0
330.87360921817	-21.047441701583	0
349.92047092515	-22.113625364204	0
350.84628384118	-15.532137452466	0
351.40174782903	-16.840228582855	0
346.91459909339	-17.475678412379	0
345.43954356407	-16.873185144727	0
341.9604159402	-16.112852819254	0
342.40979727961	-15.146631919165	0
343.76785714286	-14.975595238095	0
343.22758013134	-14.111040438175	0
336.09704691682	-15.119919281858	0
337.27778470988	-15.464703559456	0
336.71577863016	-14.370552244331	0
329.10049411687	-26.566219812261	0
330	-30	0
332	-30	0
329.50754699687	-20.476833484984	0
330.91122877749	-20.006304858785	0
329.51848443013	-19.265692592857	0
327.66598256562	-19.008729177056	0
326.46803021755	-20.198531267227	0
348.70195976579	-18.428079682461	0
346.71599330899	-16.341324629915	0
344.64764407248	-15.885677865779	0
344.98160547133	-14.682542506669	0
349.63137339717	-17.638210725982	0
348.78697584748	-15.643448532263	0
339.37208021104	-18.143939206744	0
338.6395644571	-19.049087909466	0
344.16260929477	-13.950514570436	0
335.32141449427	-15.70538852538	0
340.06553628742	-11.539787515711	0
340.81850540584	-12.101186450115	0
340.38375806882	-10.656121201605	0
333.90555425581	-18.246885988841	0
334.82969977222	-17.403419764475	0
336.42152784049	-17.559573016758	0
[...]
CELL_DATA 6713
SCALARS Coverage double 1
LOOKUP_TABLE default
0.20142890067631 0.25007461541544 -0.40390421311116 -0.32394096876607 -0.16602856954304 -0.62625739875873 -0.23801399298026 0.55250033852041 -0.64109701129852 -0.5664692339535 -0.069596323199387 -0.47194835157602 -0.37670464416816 -0.54192495166029 -0.22335783112259 -0.58702449312138 -0.51940357147117 -0.4239576532463 -0.36674165222568 -0.53336144425598 -0.54616809689132 -0.59979061670294 -0.44358636616331 -0.57181537191034 -0.62832686606404 -0.60336928659758 -0.54387885731245 -0.60328178771519 -0.63498986948238 -0.62251607013383 -0.54911037949088 -0.48549447403932 -0.56450027663429 -0.63419442761234 -0.57556050127283 -0.58494690040827 -0.57008097990928 -0.5408738301872 -0.57853115591375 -0.51949653973712 -0.48068650356251 -0.515596696812 -0.49821523505354 -0.64146347643483 -0.50188129396438 -0.52028806548888 -0.43579344231608 -0.57949221035547 -0.55547697346518 -0.56547411050186 -0.51433345253266 -0.54176985849356 -0.47974718240152 -0.52059074391327 -0.49577172196896 -0.6473903563376 -0.60301937487232 -0.62934616388464 -0.63776584056019 -0.63917061946502 -0.50068173543275 -0.59456207769274 -0.53524324082201 -0.4384189411683 -0.45852515774165 -0.55875193259205 -0.59612333139658 -0.50507804438799 -0.63919973217336 -0.59518140450545 -0.49003379474519 -0.47694618737244 -0.46626186148359 -0.44506785966365 -0.46344682407594 -0.42303807710261 -0.51402633500726 -0.45572469416936 -0.39607577085219 -0.44201401043465 -0.41470867360105 -0.37116613004364 -0.34567633057541 -0.40917999515864 -0.3971378622783 -0.40589481052885 -0.37118985458959 -0.48605069487106 -0.45487012672492 -0.49971468842499 -0.37294982898217 -0.59744603513869 -0.57889494381532 -0.50612957659893 -0.55303559692022 -0.52474171924368 -0.60221416539086 -0.55680769154064 -0.56625143525227 -0.59722685759038 -0.60633927791727 -0.63736658878993 -0.52324471648593 -0.57316945664324 -0.60870661892766 -0.4748162565764 -0.55826563607397 -0.4221581473645 -0.52627043473147 -0.44388730953308 -0.54135890826567 -0.52688598873907 -0.56112406769235 -0.51840112947102 -0.49717138044232 -0.49873175596966 -0.41397044191954 -0.45306330261668 -0.41596481553552 -0.39574788896911 -0.38130562405264 -0.32528643936269 -0.434953480143 -0.43627706749355 -0.3771011599 -0.4363206769083 -0.41787077026022 -0.47624324272913 -0.32324624132236 -0.3307694168242 -0.39752311177041 -0.4380122837169 -0.4746892782287 -0.48078971934673 -0.26478698800546 -0.44638093041584 -0.39140905289577 -0.40979037012962 -0.44627167979908 -0.5130031465674 -0.3326168029684 -0.42136943157158 -0.46136942297834 -0.39335210652342 -0.43877137896382 -0.655800633553 -0.41583782773684 -0.48918319569238 -0.49092177865137 -0.50065318839979 -0.56685912493286 -0.62181314784241 -0.49134799926892 -0.50298770972446 -0.55648177568976 -0.47965779378756 -0.21977074768325 -0.27748898177526 -0.31419360930303 -0.43724750510684 -0.52504969930352 -0.48257726324482 -0.54652179665654 -0.54522413546779 -0.55872226737793 -0.57816054008856 -0.54259052366147 -0.64318153308126 -0.48548865791683 -0.53201191165889 -0.41014453344975 -0.3787019667199 -0.45539117386965 -0.4194818366063 -0.4907847981169 -0.47597035470603 -0.46670126693081 -0.44341816712747 -0.28502107052745 -0.36677957118774 -0.48489068919721 -0.60155143950429 -0.59913002354975 -0.59044219287839 -0.40120772110864 -0.3354745942748 -0.46440464092621 -0.400500480302 -0.38461156473393 -0.37473726472688 -0.4144252993781 -0.37653811526988 -0.30477404473886 -0.34785128149025 -0.37715294645237 -0.39969158646324 -0.45332313357427 -0.43327553806798 -0.50883603569221 -0.62816385427103 -0.61630036611261 -0.64647856045236 -0.61525845938133 -0.55833423853662 -0.58424289191947 -0.6206236693499 -0.62419557883767 -0.33502667708632 -0.30742164870969 -0.45923962975347 -0.5205712399562 -0.43513780045581 -0.47721730655372 -0.55288722571375 -0.53446237296663 -0.50750691452123 -0.64922536422634 -0.58654079011275 -0.61785820269683 -0.56025456175294 -0.56314565542467 -0.53969928016033 -0.55962474991061 -0.52702733411173 -0.51620053018564 -0.50603391044269 -0.51113519998332 -0.55320158371448 -0.58479920681553 -0.59460969965932 -0.51044913667933 -0.34301239734478 -0.29837680299762 -0.36960168555558 -0.36883326058926 -0.5686302755529 -0.51153541255842 -0.33952065543418 -0.58686329403473 -0.31255037258021 -0.34732040313615 -0.34348860274499 -0.30081388733381 -0.21883750563494 -0.29235629720979 -0.26807756336054 -0.4111488961305 -0.48041064297513 -0.38623393516066 -0.38822312605097 -0.50810065090133 -0.55674171503654 -0.47306064865794 -0.51362564531342 -0.47195189873269 -0.50197110806019 -0.46683881665359 -0.51837730988637 -0.49967221074731 -0.55312224716649 -0.55025599991022 -0.54520577136541 -0.53907186732386 -0.62618125001504 -0.55517392615922 -0.58806695927942 -0.66819563821366 -0.65758169758218 -0.44203550409663 -0.089362587533722 -0.30590411310584 -0.32521337607521 -0.29417934480584 -0.30315082224043 -0.27225339275662 -0.26395052181336 -0.27627195178239 -0.35023062853398 -0.27643037666263 -0.23320597571796 -0.30675994840217 -0.35059825925337 -0.37264303386127 -0.28647524334682 -0.48374892853393 -0.5158840173382 -0.54622809302282 -0.54206479180145 -0.3418326703278 -0.66007273973883 -0.27163708799409 -0.22981172635336 -0.34860874060694 -0.32413694861682 -0.29485507594248 -0.35091622502763 -0.43313615145458 -0.49352702438093 -0.54542485442484 -0.45177353644956 -0.52044742052923 -0.54770824086489 -0.60347682342808 -0.49190181282392 -0.48387520666562 -0.46983115040792 -0.44343829930305 -0.44150131761086 -0.6183717415824 -0.40193704427915 -0.44718492682862 -0.3976201105337 -0.40896564884429 -0.66674566881889 -0.62788049391861 -0.65413227085454 -0.60160036565675 -0.58024316667279 -0.41224957926749 -0.20234672117993 -0.25429446016632 -0.24052813369777 -0.30186700864517 -0.30358277976979 -0.18728487734001 -0.13132309347222 -0.3384537609977 -0.15591388115348 -0.53443023314448 -0.56878687867546 -0.59498225230383 -0.59906239428272 -0.56909421801801 -0.67847246751347 -0.35617910744422 -0.36007621041781 -0.35545397278592 -0.40010721417084 -0.39774028279483 -0.34936318597294 -0.27191424244148 -0.25669722213636 -0.28431180063858 -0.23651087054546 -0.22213686776843 -0.2534703124383 -0.15150968363417 -0.25406362990936 -0.20392937427859 -0.21775320173864 -0.31502787672875 -0.34936401913613 -0.37027060437281 -0.30733571908403 -0.36936966631501 -0.35470396283285 -0.39520686539457 -0.36515750338603 -0.27951805949969 -0.33678009144795 -0.35821834464127 -0.31769277631461 -0.11603446925897 -0.21184733643266 -0.32694818642995 -0.28956709707447 0.16012920319675 -0.31131067649448 -0.27450937318103 -0.32102189390374 -0.25047345048531 -0.2763446624535 -0.28766625215883 -0.28787765194583 -0.3955282474706 -0.37381937765995 -0.35344711650334 -0.37670642283944 -0.34028744142398 -0.33841410068117 -0.31061242635914 -0.32150874319433 -0.40279424295909 -0.43083354583134 -0.14781523147465 -0.03303181227284 -0.19126651976393 -0.17411972821253 -0.26897707460762 -0.31593763352573 -0.30364967882045 -0.35255810497253 -0.29120592105928 -0.25850658293198 -0.31870396266186 -0.31985469382058 -0.2557469163008 -0.35102016595473 -0.38828602502885 -0.42831863452268 -0.17848953137566 -0.12760302495693 -0.17705759649985 -0.19952089708673 -0.13061371180373 -0.13747548263168 -0.19140855685772 -0.22538031332186 -0.24777463216747 -0.30319578806836 -0.3239604915606 -0.28961981828074 -0.26877928774873 -0.251897285869 -0.2413948010322 -0.21656581398038 -0.16127633111169 -0.23398212863401 -0.049451469198126 -0.20171717910502 -0.17845297092058 -0.28362085834869 -0.41317861406868 -0.30894219346983 -0.30943677385458 -0.32913839718368 -0.17590931569174 0.16968603205059 -0.16163537836319 -0.18694634161322 -0.24548877828883 -0.24050549804078 -0.20879819930643 -0.20143841805468 -0.25082181230764 -0.26718875801514 -0.17869809621376 -0.21306939633369 -0.24599856276782 -0.26007665548251 -0.27875067052822 -0.25930682600394 -0.15370602537389 -0.26971212263457 -0.24474532228066 -0.26677258631498 -0.16147597744854 -0.18828472230296 -0.29277598476465 -0.28446224397391 -0.307842152688 -0.33349556998405 -0.25154069941721 -0.28335475634807 -0.098903796148889 0.020739056462675 -0.20013116452574 -0.13477670158716 -0.26414300523702 -0.23406591170693 0.015906380149716 0.18580638148787 -0.38581908207076 -0.29508940342256 -0.3027297024283 0.19657770487649 -0.064625938000887 -0.08125654914347 -0.19566520166499 -0.015288171248778 -0.29050077816587 -0.31811514071188 -0.25230342338021 -0.35435243644066 -0.22421144225753 -0.23326703675662 -0.1373819003185 -0.11082257645151 -0.12755034212678 -0.064372604819317 -0.092059686862702 -0.02972400896934 -0.16974624135246 -0.067416566566784 -0.084907537406977 -0.12414933052263 -0.21973888056604 -0.1970823254793 -0.25534707917185 -0.18956158377296 -0.24056274101014 -0.16674426704777 -0.093857868913791 0.34943942511964 0.025241668940652 -0.0052896501750824 0.25626100939452 -0.15037971098762 0.27729832148389 -0.1825059604707 -0.11576975506605 -0.19005302991488 -0.046418961277994 -0.21683907681167 -0.053935845566998 -0.10355930835456 0.3104473496682 -0.14202768116628 -0.22688173833019 -0.23610480315325 0.10521954244727 0.22730769183832 -0.15635464005331 -0.27102821409636 -0.22967128050575 -0.2566253673408 -0.25317457061028 -0.24290473483795 -0.11890686596822 0.10231820243877 0.066020369359844 -0.15387997385554 -0.0073521271091689 0.018456799967006 -0.085498876025838 -0.027957929820327 -0.054458023515068 -0.040547332210016 0.26338271977692 -0.13730476612116 -0.20468213791018 -0.19537476821701 -0.30260689099734 -0.26747479667966 -0.31007983859583 -0.31744790325816 0.23466154641445 0.17668968385245 0.26666547846247 0.40944868689069 0.17321449550629 -0.0055678342188615 0.15297312547219 0.35945110872653 0.24495007266351 0.094015445038959 0.13899142743682 0.17922972625791 0.040212873234331 0.085764235197715 0.16262200498106 0.27180200223219 0.35830448094466 0.31755831212461 0.4077981129071 0.31769484638426 0.43217793843857 -0.20972617788801 0.46957343768086 -0.12490461311002 -0.077563965132604 -0.057557498389406 -0.095318970956587 0.081008081157983 0.24157177530812 0.036209640187202 0.34483144117042 0.37365334016146 -0.10684135459708 -0.027876301751711 -0.14087800352227 -0.083281798889197 0.077541326138399 0.11542624702785 -0.10639560196933 -0.066852319144884 0.072836970708729 -0.018988013207406 0.053125811642132 0.047555802014713 -0.024833995675335 0.0037439352840991 -0.029318576062865 0.095093782933706 0.078369697500992 0.0332644384018 -0.16564809792983 0.023044323303489 0.098142273232082 0.21813979115493 0.10116655015427 0.20737825229705 -0.19037195719221 -0.24835309708517 -0.074441807161473 -0.051358364183594 -0.25373429913895 -0.26730659290099 -0.20376374828978 -0.1248304773566 -0.23079564866629 -0.27936292604856 -0.23634389959459 -0.26563047656416 -0.30440795122274 -0.28556695420627 -0.15545599956634 -0.25627852138865 -0.30712615716572 -0.34518197420452 -0.26863319121172 -0.28721320554052 -0.3422625696693 -0.33997911075113 -0.17808367831344 -0.13860257208639 -0.20489964948205 -0.13773992354067 -0.11362517867817 -0.043561482857214 -0.018787677981335 -0.20805854577783 -0.17040141943165 -0.43802539999265 -0.2894408298072 -0.31285512573194 -0.059376618271156 -0.011077839474833 0.1366744375127 0.21394398502205 0.36026332324513 0.102152917657 -0.27325836174976 -0.49451294646062 -0.0069402490713523 0.10241167875622 -0.19986289687893 -0.066549386467291 0.36564716622723 0.45841611463254 0.21046801511176 0.38617602891192 0.2123533864194 0.076188061614358 0.20610734904343 0.28157669507396 0.41244792493819 0.11662542464969 0.14379807782982 -0.067421106551342 0.18914022552602 0.011272467520911 0.31666670961009 -0.061084300662385 0.44978421084629 0.35280384804541 -0.16569596246659 -0.060737363579267 -0.24273612270072 -0.19916550574894 0.039937075390612 -0.046453811294093 0.30444706941752 0.39164567949658 0.18882470771847 0.33842374305755 0.41002513883077 0.40316564717279 0.16128899407288 0.17023576793471 0.24726509566916 0.43482807265777 0.091344199553967 0.11616533736828 0.19361246491116 0.38822427434722 0.0099509086149208 0.11964846478237 0.15990393021546 0.44622231899869 0.096418536577926 0.093834552596456 0.16012170919581 0.19423583012476 0.12379408137714 0.020142352224235 0.23409658777077 0.35692227775303 0.18611608454836 0.12763255956723 0.34485228443573 0.26292902589107 0.29402675589213 0.35723797701059 0.40561836665156 0.23397512942055 0.23081401995972 0.31265585186809 0.31158147697777 0.45410906547244 0.35052573760611 0.44183034018124 0.35773448956167 0.29566493941725 0.32189835354315 0.36881107811672 0.41600726008394 0.33176176241015 0.12001069645708 0.24522632379043 0.025992781846424 0.071368839253652 0.11561759698836 -0.12389974806795 0.19692355345447 0.13533829086716 0.01963557205693 -0.022838359225331 0.23855106669653 0.083134151837761 0.32549424510272 0.39703740613387 0.024208706151592 0.086606672836353 0.0034118053855294 0.0064878328656848 0.12933075386027 0.029892196831123 -0.056701751957149 0.024333037266321 0.24995142820364 0.2224604159444 0.48165569320654 0.49171556881837 -0.14043243597548 -0.15517997349026 0.27308884894164 0.16612428279883 0.032669463286507 0.20772185977015 0.25679091284059 0.29750013539181 0.3813821387568 0.32857217106271 0.38504554698631 0.44236370784774 0.25953318729998 0.49675765305331 0.21010821001911 0.28525653959547 0.27504842292127 0.39656888457028 0.45581741442588 0.47041092172107 -0.16848029550214 -0.035545382723957 -0.12859850590188 -0.085371495725977 -0.15645495795997 -0.18526565588173 -0.13977758696068 -0.21472117629582 -0.095494839761228 -0.30718059744509 0.42894576131049 0.40511745119415 0.42395414171794 0.46909453818318 0.44062276168295 0.46470066455196 0.46815195086828 0.42367456625886 0.38698253882503 0.48393778162543 -0.21102499709802 0.41827565360602 0.48438962937971 -0.28299601382815 0.45688130941995 0.46761277045781 0.43341368108752 0.51877264463426 -0.17501602226268 -0.10050434852112 -0.21991698186213 -0.201008321454 -0.034504915607001 0.111726667343 0.46028811406964 -0.1517187413803 0.36902897842395 0.42738460357323 0.45332412565435 0.41583654423807 0.45864748504619 0.40368819476563 0.44587070703478 0.51133965758841 0.4565179807005 0.37225342302819 0.47338020652211 0.40313106337957 0.47435020598127 0.43854632878444 0.43222686689695 0.45510445088142 0.10626077009666 -0.10166940888328 0.41370890676513 0.22213356929132 0.048237011712878 -0.097769379346173 -0.2764172720489 0.45878194177753 0.40941810816239 0.12809211978295 0.09375111902345 0.24750653239912 -0.033756479716984 -0.21782387045212 -0.087548365765879 0.30993720489149 -0.31600955198882 -0.033325484820361 -0.25167315234547 -0.21836366800161 -0.18208782068711 -0.22954966565593 0.14268454873315 -0.10753480508969 0.24994767755801 0.34196894473045 0.3120687934903 0.31471248067842 0.43460442288577 0.00056652034875236 0.33987103401032 0.3946667775341 0.45870055102556 0.35622285006108 0.46427956802192 0.40397504056227 0.45135355940288 0.43211510826299 0.45451413414665 0.056459364748276 0.44485398684708 0.54976380197743 -0.013193588706925 0.46921688799369 0.034067857943066 0.15304511856622 0.0089418884236379 0.17815182949998 0.33930224797119 0.39694174011781 0.32305658687982 0.40146445425798 0.26920587889418 0.29862300874212 0.37799972545339 0.43524006707336 0.26878856655266 0.18039384707595 0.36451200200492 0.34649599970391 0.45876100758533 0.48455233991295 0.46907988033699 0.40511968222241 0.16585255826447 -0.027994022827695 0.41190779822165 0.41448385636755 0.13951561843032 0.07675613980712 0.48545545662898 0.50160688438597 0.074181562807126 0.020553641357374 0.071891271074844 -0.00020853521768184 -0.064002477662828 0.021824558017837 -0.10705304644842 -0.10459127268955 -0.11789929889808 -0.14136540058462 0.67420282762393 -0.16119486321788 0.4174638489108 -0.059863894528963 0.0051370265395012 -0.26671770543285 0.18057720760593 0.43060742024436 0.45355324159733 -0.18325806538014 0.44318878684707 0.42950917513896 0.38826453513515 0.60250526390817 0.40932045108412 1.3620643423691 0.43961437314023 -0.068585190772043 -0.099570620020037 -0.082863707584385 -0.17165641278129 -0.22067992318051 -0.15119742496682 -0.24315828850181 -0.21536772087486 0.45625878788672 0.51552503152506 -0.15098443427484 -0.21694462418033 -0.26600828322316 -0.3486671954284 0.45427062449671 0.86849808702142 0.42537798537294 0.44599796209565 0.45961328386794 0.44889809566977 0.50364389331371 0.45988176031591 0.51465318354102 1.6924822005793 -0.22496244519982 -0.26049405467649 -0.17605449183167 -0.22475634603958 0.47400472425179 0.51667873702962 0.47550317548771 0.47863385520404 0.4396568198415 0.46274764863641 0.42358676543303 0.45053463587976 0.48095599063921 0.50200755714268 0.45781254363493 0.42075875250956 -0.25747067355695 -0.30357415958212 -0.23170637963679 -0.24076854951765 -0.3041118051595 -0.45042576309886 -0.20139557586878 -0.31607311686098 0.50229394538823 0.43779783054277 0.47166915680426 0.40977713898671 0.50717276552942 0.39280572760768 0.50452333137193 0.60313938356997 -0.24553161924772 0.35607360845096 0.4801676602994 0.95973382856208 0.55689032119908 0.51768021276978 -0.31065131777282 0.58485357898864 0.47156614486849 0.66972007325502 0.44098799341046 0.42348800508806 1.3392768900046 0.61770577213848 0.43596716078312 0.42583893374121 0.483101028411 0.55877486884705 -0.20403523296294 -0.25433096987337 -0.22732777134311 -0.26651375322698 -0.059061965819598 -0.29770147057911 0.47220764377481 0.50005515172648 0.43409219882531 0.45375165554612 0.38560167317323 0.4210645375205 0.49310742385957 0.42839532886385 0.46700582966974 0.42260552804673 0.34014228730269 0.43885280967358 0.42596416252342 0.46658114672838 0.4365952859156 0.46451490279022 0.449176982391 -0.30357190030325 1.1491005321106 0.29954379683073 0.4248594475546 0.36006658091499 -0.28316996543537 0.87160845192873 -0.2641644890442 -0.24229961251627 -0.32807112712683 -0.22442715082488 -0.27627905271528 -0.30504957003656 -0.68328981118237 -0.19071219120526 -0.2188869406775 -0.087860500371525 -0.17457986782822 0.24503463210351 -0.20961493093613 0.44898868815376 0.43339872849652 -0.18438597822816 -0.27439197257803 -0.1805743620408 0.47757186462826 -0.1108880375934 0.23485255037906 0.33327271441895 0.4403213810356 0.42924261595472 0.1525750284805 0.11257180241283 0.22471558921646 0.23080654509922 0.50015529381075 1.5981334815205 0.52295803817221 0.864421990961 0.80376175518882 0.77923570210137 -0.14340075830162 -0.24282633562473 0.4365254260907 0.46241697480576 0.74643995307485 0.44454559915607 0.44100488100167 0.40355235415863 0.46852165830664 0.42884868296748 0.48854937344094 0.44180605014646 1.20415565264 0.42182356695816 0.50056018679204 0.15030598116262 1.038899475591 1.2013612697555 1.6509019535803 0.33859185168454 -0.042220493167712 -0.18088020999243 -0.33239919670423 0.4808320487739 -0.023019870192286 0.39967730474887 0.42895379520186 -0.18877867420263 -0.14241461321833 -0.15651628951215 -0.11602368598112 -0.074132365775668 -0.008525302757113 0.27414985801703 -0.0526426164017 0.21889643364965 -0.092656604478838 -0.080534297497338 -0.089420474344134 0.4504917258224 0.42893540685609 0.44950232369357 0.43393453171086 0.41859499090053 0.47287005742801 0.6776785346079 0.57402118189235 0.47069989166761 0.43981632448667 0.38505574636767 -0.01483465192119 0.39133799165264 0.40084919786721 -0.60551661292007 -0.63834803645436 -0.62322556685199 -0.63425207593985 -0.63907334815015 -0.62826410646041 -0.62769883913473 -0.64318125260837 -0.64599967738597 -0.64080253244396 -0.59876636237998 -0.669024264761 -0.63297944186107 -0.56209031982309 -0.60759177124776 -0.53966690887978 -0.62439831588413 -0.6083267470345 -0.64157438696486 -0.64883254131277 -0.65666659205574 -0.66055918763973 -0.65272860666119 -0.54965938888359 -0.64750656491033 -0.62733260717233 -0.63297046984215 -0.66852364364521 -0.63766856064787 -0.5804908989118 -0.57750544056589 -0.57205101148671 -0.50240580598183 -0.41