# vtk DataFile Version 3.0
d-2__ created by libgimli-v1.5.0-1-g5991b6ac
ASCII
DATASET UNSTRUCTURED_GRID
POINTS 3503 double
375.1578521782	-10.539151806402	0
374.30878561874	-11.333149474909	0
375.3080427115	-11.55073527979	0
353.15258822552	-10.422449633894	0
354.18292561154	-11.057857317938	0
354.09071294025	-10.152986335986	0
314.51658123431	-21.368484601131	0
314.96475377565	-20.187401839325	0
314.09486661769	-19.791134994325	0
335.06063641948	-18.727786604686	0
333.91590926067	-19.498034653476	0
334.91220138096	-19.749030751392	0
312.87716728938	-15.00604677148	0
313.69828752852	-15.580536085108	0
313.98359442208	-14.619871526021	0
341.70988577375	-28.660260789144	0
342	-30	0
343	-29.123588643481	0
348.7531633215	-17.546589094766	0
347.86234665953	-16.451218929466	0
347.86425349804	-17.846833147372	0
375.15001567568	-2.6543707282398	0
375.08920457871	-4.3757358784135	0
376.22037756121	-4.0797248193676	0
331.24701524002	-29.00972685821	0
331.5383179196	-27.800276696779	0
330.46657948895	-28.04094051305	0
337.48803825856	-27.051366115864	0
338.32343370468	-27.334799680269	0
338.02796277779	-26.445571565557	0
357.20605079121	-14.709569472276	0
357.85756660241	-13.654967184957	0
356.78162696934	-13.544870688863	0
328.54735744887	-23.256550472402	0
327.77170479073	-22.704596806248	0
327.40759358459	-23.530845980281	0
346.62961148435	-22.534259875623	0
345.7207320123	-21.54193898275	0
345.78582542797	-22.39470673296	0
347.28490189136	-26.096656943139	0
346.55078637646	-26.971375159464	0
347.59285754109	-27.19630273383	0
333.01506724416	-16.343217962281	0
333.95176015367	-16.823038042938	0
334.02850253057	-15.519019049605	0
341.11027567368	-27.864123774538	0
341.93773697254	-27.308539202209	0
348.23976421434	-26.422192246908	0
348.23606287066	-25.506374143487	0
340.7815083627	-22.561631757902	0
339.95527348683	-23.411233939364	0
341.08560404588	-23.767381049592	0
328.20142864825	-19.8594185078	0
327.41468444396	-20.437670481708	0
328.6128679825	-20.679263753271	0
344.63906255701	-27.131301422613	0
344.91507157142	-25.969027191901	0
343.75330397773	-26.247161011632	0
342.60533908547	-26.367001824738	0
341.59001971585	-26.354536308704	0
342.77127924898	-28.039077133929	0
343.87641950859	-28.123595788103	0
342.98714802434	-24.466235767669	0
343.99938007848	-23.757278462125	0
342.82766487631	-23.364445574604	0
343.3902395715	-27.213238459131	0
344	-30	0
344.47000762137	-29.026773541979	0
345.4283684451	-28.527152251101	0
345.03125	-30	0
342.10804674891	-25.516345982921	0
343.09257647957	-25.476143512093	0
340.2340649423	-27.389127803649	0
341	-30	0
345.56872553926	-26.738162001498	0
346.41565706211	-25.356068680999	0
344.65932317038	-24.802127402381	0
341.28276686316	-24.825461740858	0
340.76171399362	-25.767221706505	0
340.5	-28.8771229825	0
340	-30	0
341.86534410235	-23.171226400586	0
342.02816341031	-24.13915449407	0
345.86814224652	-27.661654107097	0
346.75696928487	-27.857963937904	0
339.71109539013	-24.570917083129	0
339	-30	0
339.5	-29.104597936777	0
347.09375	-30	0
348.125	-30	0
347.94100745271	-28.986442887947	0
346.11461824861	-29.104624705985	0
338.99376444428	-23.814330701581	0
339.11289562393	-25.324175349654	0
339.80007322831	-26.056412468667	0
338.16751139807	-28.66810303358	0
346.93840036055	-28.74994701989	0
348.27804492159	-28.013017481755	0
345.67470620743	-24.64403880213	0
338.21670176545	-24.974779378868	0
338.25762748325	-25.727537191637	0
342.51081497097	-22.449493860525	0
341.77753932575	-21.8171669437	0
346.00484330547	-23.221435925561	0
345.08565052908	-23.802012599889	0
343.52096580134	-22.493405775632	0
343.07764533576	-21.050837360621	0
339.03989993998	-20.139486053589	0
338.05817368029	-21.216453195392	0
339.57790204509	-20.912859002522	0
347.59468273575	-24.852640236576	0
339.75341858333	-22.388374595877	0
340.49294446791	-21.137022665224	0
339.32785194185	-27.993107166835	0
339.44621372508	-26.908666170907	0
349.32293879219	-28.919860490172	0
350.1875	-30	0
350.38733685352	-28.953973165014	0
346.67900715046	-24.340483727014	0
349.2451130525	-26.505912038336	0
344.79971102888	-22.731845314405	0
350.48339173151	-25.804360955916	0
349.06582591228	-25.67780995318	0
346.99172996874	-23.389488736344	0
348.23524534544	-24.087130531198	0
348.87668944105	-24.851901763769	0
349.83477727934	-25.067106214402	0
339.00599169901	-21.661504806153	0
338.68805901562	-22.736146736974	0
341.6699128258	-20.396834493094	0
343.00311025676	-20.002223728293	0
337.64588799407	-22.601008203293	0
337.97354771478	-23.599518077485	0
336.5696025807	-22.61171969468	0
344.01022177956	-20.303674235911	0
340.54565406524	-19.914996930877	0
337.10364236907	-24.462448472632	0
336.20853425439	-23.62568946289	0
342.68199931048	-17.840113055478	0
341.22406946366	-18.187754786985	0
342.34580285034	-19.1818012753	0
335.14053768741	-22.674110553206	0
337.12375843727	-21.688997464684	0
336.33717320029	-25.697849369013	0
336.05041231577	-24.691980125629	0
335.82963242213	-22.06026340325	0
334.93358930147	-23.981495255923	0
334.09073184732	-23.178006286527	0
336.33951510241	-21.088377353552	0
334.06417241352	-21.777153276644	0
332.94057652017	-22.995946034449	0
336	-30	0
338	-30	0
337	-29.19774860681	0
348.74329295316	-23.420805856725	0
348.6792793684	-22.585339995972	0
347.95812535801	-23.128209221327	0
350.3501812348	-24.197671888416	0
349.45939240383	-27.707232445869	0
351.734375	-29.144248289179	0
352.84882294577	-27.889530040813	0
351.21875	-28.288496578358	0
351.34132639573	-24.395632880694	0
351.20928807154	-27.311279310884	0
351.88182217129	-26.602236998598	0
349.21517795501	-16.794133156697	0
350.32058079816	-17.10394245671	0
350.10490030143	-16.258997873637	0
345.48526666967	-19.459093843261	0
345.58821240599	-18.247993180035	0
344.35288139517	-19.158887816403	0
346.65649586073	-19.484436504778	0
346.25126390996	-20.541681308597	0
347.61936264003	-20.459777442039	0
338.81243336677	-26.237938671526	0
337.25429811215	-26.200727719844	0
337.48612896069	-25.391990373751	0
344.3789271865	-21.440339481862	0
347.84391578498	-19.275149678956	0
347.09871655868	-18.52029622732	0
337.60176175697	-27.926173010404	0
336.67505358025	-27.817799716283	0
347.86829711434	-22.189009469588	0
348.66449579864	-21.682814900134	0
347.05594685479	-21.709163303783	0
345.11942480936	-20.572008845279	0
349.70082943376	-23.423140079513	0
335.314284051	-25.479440285085	0
334.5	-28.976922582051	0
334.33986495096	-27.849516635116	0
333.34910807472	-27.740283311285	0
336.53572602175	-26.855611412651	0
335.54331808192	-26.911276082219	0
335.81738102898	-28.747995168995	0
333.93056661948	-24.189841038622	0
334.26590313415	-25.217182746704	0
335.33231591928	-27.881566878836	0
343.34799546399	-19.052385492896	0
347.86639712078	-21.306749084285	0
332.44066622941	-25.866570505767	0
331.52450997757	-25.650873015122	0
331.75543805194	-26.723521764444	0
332.96839617983	-23.980280207154	0
331.88423136108	-24.781121204831	0
333.22370725625	-24.931334333518	0
334.54274587168	-26.337090073084	0
348.37824841791	-19.954693469505	0
348.97717262232	-19.284064923524	0
343.87964211248	-16.305048663342	0
344.02122269338	-17.494228580989	0
344.5770577457	-16.833546828862	0
335.36702793844	-21.261729140618	0
334.35728045579	-20.613703982693	0
332.76716750013	-20.831752502658	0
331.97935942445	-22.7427623764	0
331.37603452391	-23.532723979393	0
330.45030150643	-23.147364895966	0
329.85375531869	-23.953352419898	0
329.62823670155	-24.971853382768	0
330.72649853393	-24.524773576581	0
333.28642636179	-26.745495841665	0
334	-30	0
332.89841818658	-28.629333215161	0
333	-30	0
335	-30	0
351.1273795905	-22.886616896716	0
349.71557672976	-13.62730617622	0
349.79927624224	-15.266743088145	0
350.74835931206	-13.720487022207	0
348.5970701767	-20.790999731451	0
344.3667220018	-18.290761620276	0
343.49995917222	-18.193526018748	0
339.89448278604	-18.879573750623	0
341.31155237406	-19.218968735785	0
344.92337033645	-17.624445414311	0
336.05068363238	-18.436618124115	0
335.86757826531	-19.371073030239	0
336.74969929197	-19.083232889388	0
331.77701714214	-20.558836602387	0
332.59541827209	-19.522254411682	0
331.6194112034	-19.298349428515	0
337.5749989037	-20.287490296183	0
337.55751687101	-18.626702264589	0
337.34493491814	-17.714790994284	0
329.46044245548	-22.987170320251	0
328.98001713547	-24.018429056599	0
330.77827746474	-26.224462347356	0
343.0048142347	-16.324415146777	0
336.62798969546	-20.003111265311	0
335.69751075461	-20.337636024226	0
332.70858064783	-21.925490941256	0
331.53111948511	-21.855563849241	0
329.84415997071	-25.927850793118	0
328.95499476284	-21.890591080509	0
328.62855296423	-24.954454290973	0
332.51290758714	-27.293603906812	0
330.15948975148	-21.806002538944	0
330.045090233	-26.914273864359	0
329.14845038392	-27.891882928412	0
330.87360921817	-21.047441701583	0
349.92047092515	-22.113625364204	0
350.84628384118	-15.532137452466	0
351.40174782903	-16.840228582855	0
346.91459909339	-17.475678412379	0
345.43954356407	-16.873185144727	0
341.9604159402	-16.112852819254	0
342.40979727961	-15.146631919165	0
343.76785714286	-14.975595238095	0
343.22758013134	-14.111040438175	0
336.09704691682	-15.119919281858	0
337.27778470988	-15.464703559456	0
336.71577863016	-14.370552244331	0
329.10049411687	-26.566219812261	0
330	-30	0
332	-30	0
329.50754699687	-20.476833484984	0
330.91122877749	-20.006304858785	0
329.51848443013	-19.265692592857	0
327.66598256562	-19.008729177056	0
326.46803021755	-20.198531267227	0
348.70195976579	-18.428079682461	0
346.71599330899	-16.341324629915	0
344.64764407248	-15.885677865779	0
344.98160547133	-14.682542506669	0
349.63137339717	-17.638210725982	0
348.78697584748	-15.643448532263	0
339.37208021104	-18.143939206744	0
338.6395644571	-19.049087909466	0
344.16260929477	-13.950514570436	0
335.32141449427	-15.70538852538	0
340.06553628742	-11.539787515711	0
340.81850540584	-12.101186450115	0
340.38375806882	-10.656121201605	0
333.90555425581	-18.246885988841	0
334.82969977222	-17.403419764475	0
336.42152784049	-17.559573016758	0
[...]
CELL_DATA 6713
SCALARS Coverage double 1
LOOKUP_TABLE default
0.20134837110243 0.25000489192216 -0.40390388032645 -0.32400771229794 -0.16597132158157 -0.62617773644056 -0.23798311586567 0.55252044419706 -0.64119776096581 -0.56646561337494 -0.069581845985984 -0.47206760567315 -0.376647761883 -0.54186024647772 -0.22338987444215 -0.58696074037827 -0.51934508112336 -0.42392511020326 -0.36684498313825 -0.53328914741911 -0.54610607970557 -0.59971404647408 -0.44352704510203 -0.57174494792477 -0.62824353836524 -0.60328915780213 -0.54380537110016 -0.60320683487619 -0.6349084543764 -0.62243393532504 -0.5490432226644 -0.48543454651815 -0.56444545100169 -0.63412279145569 -0.57548789669741 -0.58487657458387 -0.57000499209353 -0.54080571919392 -0.5784533561431 -0.51942480516632 -0.48062274624521 -0.51553064872744 -0.49816409399433 -0.64140977268904 -0.50181577491975 -0.52022803758718 -0.43574434545871 -0.57941400433229 -0.55540104711459 -0.56540771223183 -0.51427088881955 -0.54171671762422 -0.47969548343425 -0.5205371828643 -0.49572629959328 -0.64734834702058 -0.60295844325693 -0.62928397734105 -0.63772128256196 -0.63910283823883 -0.50061352942416 -0.59448837336493 -0.53516938012991 -0.43837395194412 -0.45850402702511 -0.55869089438376 -0.5960675582371 -0.50505005558732 -0.63916628187572 -0.59511424578553 -0.48996647042139 -0.47689001385383 -0.46622092898533 -0.44501540618099 -0.46339890723999 -0.42299467046753 -0.51401416773447 -0.45566215106714 -0.39603328983939 -0.44195448386137 -0.41465173563321 -0.37112624148835 -0.34568049538485 -0.40913463162848 -0.39709924506366 -0.40584386593004 -0.37114241118732 -0.4860413354417 -0.4548333721036 -0.49965146076326 -0.37293839664251 -0.59740551679904 -0.57886750359554 -0.50608702774833 -0.55299853916846 -0.52467226099112 -0.60214202616848 -0.55673424634344 -0.56617898539555 -0.59714797614521 -0.60627018738811 -0.63732129906882 -0.52317916556686 -0.57310352401034 -0.60864780709544 -0.47475162780199 -0.55821255394046 -0.42209650485176 -0.52623321524381 -0.4438335170384 -0.54129874065058 -0.52683690660686 -0.56106217256948 -0.51835190023522 -0.4971242300859 -0.49869486967947 -0.4139106101379 -0.45299888190084 -0.4159384041451 -0.39573714959634 -0.38128412335983 -0.32525008000074 -0.43496235182874 -0.43630551642976 -0.37706793802026 -0.43630235851582 -0.41785651887234 -0.47624020885259 -0.32320216941284 -0.33074707369053 -0.39753635050146 -0.43801147619748 -0.47471493191587 -0.4808036165497 -0.26476743177018 -0.44642862784552 -0.39140852496244 -0.40982372484509 -0.44630022851864 -0.51303518643168 -0.33261357424061 -0.42141801036292 -0.46144338626059 -0.39339631160311 -0.43886220096326 -0.65579576687247 -0.4157981124284 -0.48915249904634 -0.4908708750417 -0.5005979962751 -0.56680840322222 -0.62179989911674 -0.49133620113246 -0.50295131491841 -0.55647002761686 -0.4796223671654 -0.21976187775075 -0.27743843548163 -0.31414097900223 -0.43718752910329 -0.52502240550985 -0.48255388923285 -0.54649326862903 -0.54518004721221 -0.55869656615534 -0.57812264014756 -0.54259309123664 -0.64317298836418 -0.48553750913825 -0.53201589677944 -0.41008678110578 -0.37864521081255 -0.45532791233992 -0.41942369076499 -0.49071800902646 -0.47591020758785 -0.46665383791799 -0.44335740283401 -0.28497590282834 -0.36672715526934 -0.48492222920746 -0.60154178494544 -0.59910182474977 -0.59044908176447 -0.40114891964715 -0.33542407939211 -0.46434871020691 -0.40045031683371 -0.38457493395213 -0.37468031753064 -0.41437261745524 -0.37647990987993 -0.3047219652303 -0.34781465950264 -0.37709483940463 -0.3996330969947 -0.45328549990276 -0.43322548484596 -0.50888280834769 -0.62822993967057 -0.61625890134429 -0.64645393011244 -0.61522708004534 -0.55836266962088 -0.58425527775989 -0.62061562272583 -0.624208732206 -0.3349732940595 -0.30736829831877 -0.45928846285776 -0.5206130429378 -0.43520862986871 -0.47729272198564 -0.5529279926128 -0.53448192774566 -0.50758250537179 -0.64923053195522 -0.58653529514454 -0.61786143763521 -0.56024272526203 -0.56316058706634 -0.53968864363236 -0.55962710434857 -0.52701357300483 -0.5162052197505 -0.50604237421467 -0.51115365665344 -0.55322001417033 -0.58482479025295 -0.5946367586507 -0.51051078381372 -0.34295604424021 -0.29833569215397 -0.36956301952906 -0.36878695812935 -0.56872855245018 -0.5116313937227 -0.33946499505784 -0.58691692177873 -0.31249553848876 -0.34726332949729 -0.34343525900593 -0.30078401738324 -0.21881752210205 -0.29232738337329 -0.26804896071329 -0.41122115928975 -0.48050080908479 -0.38630371025633 -0.38830676177539 -0.50818856698426 -0.55679655719395 -0.47314928780045 -0.51370799252112 -0.47204923158209 -0.50206989971522 -0.46694485461684 -0.51849379032503 -0.49977608564948 -0.55321259356115 -0.55033525102871 -0.5452676823064 -0.53916735689188 -0.62622924666316 -0.55524193660247 -0.58813490036344 -0.66826007371596 -0.65760170264377 -0.44201673304171 -0.089385017689673 -0.30585868695108 -0.32517913396692 -0.29413729114032 -0.30311745361942 -0.27221487556944 -0.26391775003416 -0.27626063000137 -0.35020219723446 -0.27638321646221 -0.2331780319389 -0.30681079891756 -0.35068892587186 -0.37268696845808 -0.28651398747032 -0.48386489663822 -0.51600511943659 -0.54633079658878 -0.5421635444979 -0.3417963462739 -0.66013521622232 -0.27159861939157 -0.22978852561222 -0.3486760489258 -0.32418785750076 -0.29484241557798 -0.35098186319451 -0.4332336349651 -0.49364440271594 -0.5455425539637 -0.45189151217095 -0.52056976396201 -0.54782167879316 -0.60356707293428 -0.49200813687082 -0.4839959113256 -0.46993226848404 -0.44354459771001 -0.44161493615417 -0.61848200129771 -0.40202613714758 -0.44730212069393 -0.39772308254883 -0.40907331366624 -0.66679189643893 -0.62791479529047 -0.65416614395747 -0.601668085848 -0.58033860150253 -0.4122324100226 -0.20234158531494 -0.25425744726695 -0.24048622654278 -0.30184492814862 -0.30357983818002 -0.18727878852084 -0.13133539172125 -0.33851505694384 -0.15593810488076 -0.53453394449785 -0.56888928879916 -0.59508842191755 -0.59914543767603 -0.56921318454749 -0.67856325723319 -0.35625857326531 -0.36017320551223 -0.35555452626325 -0.40021229408789 -0.39784320240297 -0.34946151892035 -0.27188192857176 -0.25665289440683 -0.28428208751898 -0.236478174578 -0.22210504997568 -0.25342604334858 -0.15151005061483 -0.25404276585971 -0.20391412539068 -0.21772542626034 -0.31506854618633 -0.349380013255 -0.37033754434412 -0.30738976564679 -0.36942348887038 -0.35474658707248 -0.39525981069487 -0.36518443883691 -0.27952868256846 -0.33683189643288 -0.35826950313011 -0.31770967046005 -0.11605115082721 -0.2118785897447 -0.32699244732105 -0.28961387855235 0.16008740942819 -0.31137463109835 -0.274556083915 -0.32108168328608 -0.25051772910233 -0.27640652935659 -0.28771850165481 -0.28793535826363 -0.39562171144219 -0.37392311362306 -0.35352669280749 -0.37680789686312 -0.3403805021696 -0.33850647366269 -0.31068342423516 -0.32159996715573 -0.40290824781405 -0.4309448683162 -0.14782298991056 -0.03307763527067 -0.19124748795619 -0.17410635285888 -0.26903214619804 -0.31601383990652 -0.30372719240105 -0.35266049866376 -0.29127645281458 -0.25855292671055 -0.31879291272816 -0.31994782668375 -0.25579896516039 -0.35111715703997 -0.38839129164708 -0.42843209152167 -0.17848736141204 -0.12761654066437 -0.17704605110519 -0.19949754632033 -0.13061864139117 -0.13748006596193 -0.19139230384829 -0.2253521131458 -0.24782129128143 -0.30327394739006 -0.32403945798342 -0.28968744308094 -0.26883363908066 -0.25194514185941 -0.24143214942472 -0.21659586755412 -0.16128821774478 -0.23402128222172 -0.049466551774409 -0.2017390896253 -0.17847421431196 -0.2836880688457 -0.41328463499664 -0.30902253290627 -0.30951995235798 -0.32922363998015 -0.17591004391934 0.16960326184692 -0.16163158925069 -0.18693441833111 -0.24545781316656 -0.24046644379956 -0.20877626995492 -0.20142329071833 -0.25079176110864 -0.26714210914435 -0.17868912228207 -0.21305084790374 -0.24597254495073 -0.26005048907478 -0.2788164637472 -0.25936056201729 -0.153722981103 -0.26977008376446 -0.24478584804859 -0.26682802043333 -0.16147643214178 -0.18826211944616 -0.29284403796624 -0.28453174806422 -0.3079233965813 -0.33358433981353 -0.2515847423438 -0.28341498670724 -0.098916347346673 0.020738918449406 -0.20012162496099 -0.1347853726537 -0.26412200711679 -0.23405394465985 0.015851548839951 0.1857270153502 -0.38578915316867 -0.29509065535356 -0.30272680816664 0.19649664657969 -0.064660743362043 -0.081282749850355 -0.19569001097291 -0.015279444510156 -0.29056914743232 -0.31819511510094 -0.25233407885815 -0.3544357462343 -0.22423838585737 -0.23328391289321 -0.137401173067 -0.1108289228274 -0.12757294091035 -0.064408601842035 -0.09206143570777 -0.029718298876112 -0.16977112010354 -0.067433646093837 -0.084917667018806 -0.12415149577627 -0.21977577537696 -0.19710990590908 -0.25538334323096 -0.18959170126826 -0.24060095974573 -0.16674160793051 -0.093886044346887 0.34943831128156 0.025228852597783 -0.0052922349431353 0.25624994635309 -0.15038244549586 0.27728840212237 -0.18250435169454 -0.11576713317796 -0.19007166556415 -0.046402555911513 -0.21686413893382 -0.053972004013124 -0.1035794616842 0.31044130774711 -0.14205519169815 -0.22690680157607 -0.23612814632855 0.10521968062893 0.227303001368 -0.15632806577686 -0.27107247297128 -0.22970809090388 -0.25666924096457 -0.25319438560036 -0.24290115401255 -0.11889406831372 0.10231563971935 0.066028340228172 -0.15387467622569 -0.0074005392529786 0.018395344228898 -0.085524742543558 -0.028004552553411 -0.05449837272663 -0.040588027374836 0.26336870013876 -0.13732988257824 -0.20470026510953 -0.19537678453185 -0.3026827092785 -0.2675302571363 -0.31015016779233 -0.31752185357367 0.23464790165558 0.17668777792273 0.26665189450284 0.40945518182962 0.17321172706217 -0.0055477375220166 0.15295873405032 0.35945253606652 0.24493832815051 0.094025148907469 0.13897313934482 0.17920502761623 0.040201964306257 0.085741852621031 0.16259750610572 0.27178806460412 0.3583084366821 0.31754165473875 0.40779890539024 0.31768566334227 0.43215706018083 -0.20971820919311 0.46955317603847 -0.12487740704723 -0.077537776096862 -0.057542567382519 -0.095342947482266 0.080940613017302 0.24151645999643 0.036186175048561 0.34482397914915 0.37365867424447 -0.10686137090692 -0.027917277773617 -0.14088581210361 -0.083310655100123 0.077475369649244 0.11535835820248 -0.10641641588721 -0.066883881045721 0.072762455667904 -0.019034412477191 0.053059362081711 0.047490199078469 -0.024878218211306 0.0036924196519449 -0.029359859870582 0.095020903652593 0.078294235422334 0.03320341434744 -0.16564720621263 0.022997382510018 0.098064630355041 0.21805944869137 0.10109860270858 0.20730005976249 -0.19036107012319 -0.24837869024416 -0.074407129252592 -0.051324592932356 -0.25375852483969 -0.26734283628495 -0.20375877014427 -0.1247953802342 -0.23080552654197 -0.27941457760728 -0.2363521957851 -0.26566740459097 -0.30446477005533 -0.28562840675134 -0.15542810876959 -0.25628968092926 -0.30718777737718 -0.34526111380224 -0.26866334925813 -0.28726019695322 -0.34233912058221 -0.34006371316003 -0.17807558318155 -0.138575975128 -0.20490363067619 -0.13771918203789 -0.11360237098981 -0.043534680465276 -0.01876272831741 -0.20803983889381 -0.17035865847003 -0.43813683994547 -0.28948634156458 -0.31290783783794 -0.059354659779901 -0.011056558449239 0.13667738615974 0.2139347857411 0.36024615493612 0.1021579351653 -0.27327433253618 -0.49461267137993 -0.0069114470823732 0.10242046485862 -0.19988815235914 -0.066578248222293 0.36565487527102 0.45841332123191 0.21040067058394 0.38618000177418 0.21228491071384 0.076119992344339 0.20602248816444 0.28151541634115 0.41246206344122 0.11654605545453 0.14380281402197 -0.067399982680777 0.18913535892129 0.011291701757767 0.3166422464497 -0.061047817957288 0.4497655379294 0.35278151503909 -0.16572173393187 -0.060767072190293 -0.24276069404273 -0.19916496552017 0.039907855281268 -0.046477504400351 0.30444446967262 0.39165425956139 0.18879668291275 0.33842373964675 0.41003869336713 0.40317742457159 0.16125854750797 0.17020572846582 0.24724352423306 0.43484557179124 0.091320144243789 0.11613153728856 0.19354456288155 0.38822383083614 0.0099136949763815 0.11958418382753 0.15988714453524 0.44621088475329 0.096352202508383 0.093767205282156 0.16004524986309 0.19416538698473 0.12372909594644 0.020082178974543 0.23403055485791 0.35691675459938 0.18604634645787 0.12756707774485 0.3448072110004 0.26286643101855 0.2939667894775 0.35719988555449 0.40561181848728 0.23391014158757 0.23074935170535 0.31260924765822 0.31152883657484 0.45412508303363 0.35049555992888 0.44185759247451 0.3577264379903 0.2956407692337 0.32184736415561 0.36878526446641 0.41602301756725 0.33171989401101 0.11993413756539 0.24514773157005 0.026011692624193 0.071382182281505 0.11562677115463 -0.1238805650765 0.19691876689328 0.13533634259778 0.019652753762823 -0.022813702554079 0.23854047190525 0.08314838651129 0.32547047464674 0.3970150239961 0.024225636945221 0.086615852029095 0.0034345292255774 0.0065101147208368 0.12933399752812 0.029909423863912 -0.056661484401348 0.024350702260465 0.24993456916398 0.22244543372973 0.48165488120686 0.49169267626556 -0.14045689472786 -0.15519785238909 0.27306575534198 0.16608723441095 0.032634326732037 0.20765539839068 0.25675456312794 0.29747238097029 0.38137962657629 0.32854497150009 0.38504032599917 0.4423786157354 0.2595023212983 0.49673387850287 0.21003711475142 0.28520242474835 0.27498068422163 0.39656431175419 0.45582209144206 0.47046075970177 -0.16847556217819 -0.035567828057591 -0.12856124224616 -0.085335543723066 -0.1564198284369 -0.18524575301213 -0.13973767193029 -0.21471022535172 -0.095454247117005 -0.30720505954332 0.42892013055241 0.40508900840494 0.42393725033305 0.46905047056628 0.44061279198097 0.46468343025995 0.46810304777785 0.42364688637172 0.38697735112022 0.48393651580058 -0.21100183366615 0.41820316388842 0.48437180108595 -0.28298880290679 0.45688347132237 0.46756142606298 0.43341844334817 0.5187231980093 -0.17503511414242 -0.10053021442724 -0.21993762665377 -0.20101550979879 -0.034546614367012 0.11169299980226 0.46030877554769 -0.15167316710077 0.36902144677256 0.42739850801494 0.45333714840358 0.41584696774203 0.45865407514932 0.40369259965953 0.44589329823059 0.51133820432887 0.45649907974106 0.37225936121974 0.47333423378089 0.40307156811381 0.47434478820394 0.43854838863543 0.43222925226238 0.45502430991892 0.10625520511201 -0.10162230146499 0.41362635512263 0.22209176481688 0.048248330930811 -0.097725000039156 -0.27641624270108 0.45874231661021 0.40942902630873 0.12807462327157 0.09367612130067 0.24743920704655 -0.033795168963514 -0.21781595147973 -0.08755398870574 0.309888296402 -0.31600025441458 -0.033360663881531 -0.25167131358161 -0.21836138214805 -0.18204254855314 -0.22953843327614 0.14267298947879 -0.10748548534099 0.24993440602872 0.34194742816964 0.31204433010822 0.31469044882833 0.43457837630483 0.00058325734011746 0.33984967022953 0.39464386666768 0.45867639676323 0.35619902276557 0.46423701821964 0.40394813551223 0.45130086216719 0.43205817736042 0.45443297704667 0.056467010140973 0.44478659581862 0.5497632538681 -0.013165773224437 0.46915945662604 0.034023615049127 0.15300833628788 0.0088914218564992 0.17808975738188 0.33926960204057 0.39694610076833 0.32301656286775 0.40146817745634 0.26914360434529 0.29856589324226 0.37796948450156 0.43527164564029 0.26874345722398 0.18033365679917 0.36447514663233 0.34645960712473 0.45880694952576 0.48453513949024 0.46910750294026 0.40506992445268 0.16580574069976 -0.028039852115428 0.41190761627067 0.41449754693077 0.13946105710599 0.076691413067438 0.48550899490025 0.50157045894168 0.074118982731436 0.0204973985424 0.071832330674569 -0.00025177292696705 -0.064037504846116 0.02176527165437 -0.10707339912939 -0.10461157066589 -0.11791540777773 -0.14137922118751 0.67419966843078 -0.16113780811234 0.41738674806693 -0.059824464802435 0.0051572232329966 -0.26669700974835 0.18054741294912 0.43057226943819 0.45351022247604 -0.18320214929156 0.44310540715119 0.42943136114225 0.38818004421965 0.60250739636317 0.40927764938983 1.362050049711 0.43959779156051 -0.068613970861298 -0.099592566708937 -0.082889080765055 -0.17167056538056 -0.22068610661025 -0.15120806085241 -0.24314139853855 -0.21535409522853 0.4562445681724 0.51547576085878 -0.15093318843726 -0.21690931861883 -0.26599280062414 -0.34873186300574 0.45419395940918 0.86848173051889 0.42530474756764 0.44592529039519 0.45960509273913 0.44885077947317 0.50365126033601 0.45991933896077 0.51462613351238 1.6924541216144 -0.22497547287416 -0.26048793748291 -0.17605600925563 -0.22474612000865 0.4740222236513 0.51663639267812 0.47551579541496 0.47860231801794 0.43967924897757 0.46271611263597 0.42361304216186 0.45057066702246 0.48089718567463 0.50197618177523 0.45775724420975 0.42070506518269 -0.25746591009767 -0.30358141887614 -0.23168345580595 -0.2407378959569 -0.30411097575461 -0.45051198043946 -0.20134519896184 -0.3160855486754 0.50223147036459 0.43771937113439 0.47161672974678 0.40972085657244 0.50714411658761 0.39273622819314 0.50446767249702 0.60313312218684 -0.2455461093467 0.35604203027865 0.480159372171 0.95972001365051 0.5568841076147 0.51767660856492 -0.31067635726426 0.58485442519652 0.4715340771364 0.66972662567392 0.44092035687145 0.42345806979187 1.3392815571669 0.61769873645365 0.43589525134176 0.42580677913528 0.48307240240767 0.55875944474944 -0.20405488989519 -0.2543609319601 -0.22729052014366 -0.26648098993123 -0.059026157732346 -0.29769475647672 0.47215838930979 0.49999989124481 0.43404644079471 0.45372987334889 0.38553460149425 0.42098217658975 0.4930658925037 0.42835663667418 0.46693165578902 0.42253346286846 0.34010332905398 0.43879204240323 0.425913429367 0.46655087343183 0.43655549700267 0.46443748492276 0.44912092763668 -0.30358010365009 1.1490895064844 0.29950408936255 0.42478039453883 0.36003794873997 -0.28319534704987 0.87160398884485 -0.26417227389291 -0.2422666077516 -0.32807963504479 -0.22437736832915 -0.27626332474183 -0.30504680140408 -0.68339385455985 -0.19066281934263 -0.21884238579813 -0.087815513902738 -0.17452925764058 0.24499777533166 -0.20955491438005 0.44895347800798 0.43332902953683 -0.18432430147319 -0.27441179520715 -0.18051399554897 0.47751305865099 -0.11083035781919 0.23482322952015 0.3332384778358 0.44028813241693 0.42921377723416 0.152558009228 0.11256758334451 0.22469490860558 0.23078108223028 0.50012059806345 1.5981091676115 0.52291672583428 0.86441171989459 0.80375377462475 0.77924299621795 -0.14333948271337 -0.24278489999833 0.43645628006214 0.46237012773576 0.74643475445972 0.44447316697206 0.44096937467602 0.40351444985029 0.46845924548004 0.42878393366626 0.48853406783597 0.44176441905528 1.20412175757 0.4218063419397 0.50052972916355 0.15024411284286 1.0388892335777 1.2013386824454 1.6508727880944 0.33854956333266 -0.042195014079813 -0.18082135623864 -0.3324013778756 0.480786896677 -0.023004624531196 0.39962430030761 0.42890823218867 -0.18871640010916 -0.14235099175609 -0.15645799527706 -0.11596693856834 -0.07409201826183 -0.0085134326563137 0.27408636056773 -0.052612196371083 0.21882200836653 -0.09261199982324 -0.080492401172705 -0.089381707706417 0.45044686214863 0.42891064344888 0.44945494122716 0.43388635856087 0.41856211752478 0.47283462402043 0.67767986024207 0.57399639628646 0.47064897618316 0.43978409652697 0.38502387897343 -0.014820375912468 0.39130264206754 0.40082013241687 -0.60543715065833 -0.63826734150121 -0.62314576912538 -0.63416693036043 -0.63899445688842 -0.62819284763174 -0.62762448537179 -0.64312930926105 -0.64597004741461 -0.6407397358771 -0.59871255480138 -0.66903451044963 -0.63291863451743 -0.56205263651656 -0.60754837446089 -0.53963037596979 -0.62437299939358 -0.60829303611288 -0.64160099634277 -0.64879488379185 -0.65664327899428 -0.66055513436319 -0.65271849624197 -0.54963822736631 -0.64752642249289 -0.62732476332117 -0.63297812200132 -0.66854607681756 -0.63769032474152 -0.58045769586578 -0.5774967735219 -0.5720686876663 -0.50240156276539 -0.4124229245169