# vtk DataFile Version 3.0
d-2__ created by libgimli-v1.5.0-1-g5991b6ac
ASCII
DATASET UNSTRUCTURED_GRID
POINTS 255 double
316.5625	-20	0
312.70565407433	-16.953217893359	0
312.5	-20	0
378.63228676176	-4.7867073447248	0
376	-4.2032254303315	0
376.94417937629	-6.8890104141432	0
341.53065395676	-16.19850494778	0
345.29611136155	-16.988775016314	0
344.70314588009	-14.021697366737	0
360.61347802184	-4.0969259770663	0
363.52008035431	-6.3643849316054	0
363.87197623405	-2.9166157960215	0
375.87605222007	-9.5279533942074	0
373.31630388782	-8.0064975998782	0
352.47442203522	-2.8192251022901	0
350	0	0
350	-4.85703125	0
310.4273683649	-6.4701857059949	0
314.2478080686	-9.5666749159599	0
313.27765413741	-4.9303811834321	0
347.77139522749	-14.951303293733	0
349.7650913612	-12.440626698926	0
347.96943984369	-9.8438510012456	0
352.47442203522	-6.8948373977099	0
354.94884407043	-4.85703125	0
349.0625	-20	0
351.09375	-17.496463588011	0
362	0	0
354	-9.7140625	0
357.31726619915	-10.12245700142	0
357.3543502599	-6.9403977790777	0
350.97928211282	-9.52629157491	0
356.12161616431	-13.243588542867	0
357.60127611562	-3.1363981425711	0
347.20643117857	-3.0820579067636	0
346	0	0
354	0	0
344.29822987412	-10.339390356052	0
345.57650940872	-5.9626675910885	0
331.96080599802	-15.872058170243	0
332.8125	-20	0
334.84375	-17.438353883062	0
352.18853664714	-14.464119061757	0
354.32612436441	-16.949667121692	0
343.69819737466	-2.998440856036	0
327.4355708589	-7.6499299944934	0
329.4027414204	-10.090321555959	0
330.07246349379	-5.7877888013635	0
345	-20	0
353.125	-20	0
341.54124900302	-12.813738425583	0
340.9375	-20	0
337.90933722554	-17.093665227369	0
326.32432312985	-10.68075514216	0
330.76098420702	-12.778697217263	0
339.8125	-3.307616584236	0
339.89233255234	-8.2033514717584	0
342.29390411647	-5.9655043870591	0
336.74915850552	-10.580054828518	0
339.15870402923	-14.472898844023	0
336.46834505984	-3.0960451166096	0
337.75	0	0
341.875	0	0
336.25542051424	-14.489592490517	0
333.69259562601	-13.041977076012	0
332.52738826881	-10.339024318245	0
333.625	-4.8690435995248	0
333.625	0	0
331.5625	-2.4345217997624	0
336.70358728642	-6.6397267712853	0
329.5	0	0
328.38907815342	-3.0320852460856	0
359.21875	-16.217270252409	0
357.1875	-20	0
361.25	-20	0
318.99908438477	-6.1014355033349	0
322.01979723879	-7.3833755739882	0
321.26722728784	-3.7300215237758	0
324.86572702938	-4.7119364678726	0
322.41166152244	-11.330157361735	0
324.9177969443	-14.318040281052	0
325.375	0	0
328.75315382484	-15.023870778507	0
328.75	-20	0
359.55365892304	-12.768761228254	0
336.875	-20	0
362.34867669104	-16.973297527039	0
365.3125	-20	0
364.91614085649	-15.030066688882	0
360.18187642666	-8.4005251359695	0
367.34375	-17.337233213081	0
369.375	-20	0
372.62931625959	-15.4113586949	0
368	-2.2336258497906	0
370	0	0
366	0	0
363.41743512713	-11.095138306107	0
358	0	0
373.21327903184	-5.0853184364461	0
371.13574405362	-3.0291690644172	0
370.97506104199	-6.6266627864699	0
366.32747620326	-11.742517824922	0
368.86752041285	-13.303163434754	0
368.69329841381	-5.1505457572046	0
366.82117364929	-8.8025004545764	0
373.20636137777	-2.1183134365006	0
375.45634629451	-1.8844717113956	0
377.76588257618	-2.466038839279	0
378	0	0
373.95083325282	-11.799664464458	0
376.8321885337	-12.28989855428	0
377.5	-20	0
377.48229419689	-15.13944243781	0
375.17088195949	-17.329212441486	0
370.48077438881	-10.141522776339	0
393.10996338591	-6.4491528888102	0
395.64134085355	-3.2652961422226	0
392	-2.9541764189291	0
374	0	0
381.28678962718	-12.772539817867	0
383.49685254919	-8.6221481402085	0
386.35264468473	-6.1490595707176	0
383.29953323558	-3.9241491740858	0
378.81301691769	-9.0366514264485	0
384.79943838672	-11.979388213686	0
386	0	0
382	0	0
381.5625	-20	0
385.625	-20	0
383.59375	-16.303523718079	0
390.12710941032	-5.9905293551384	0
380	-1.4340058452483	0
388	-2.9699430229073	0
381.33633026462	-6.3597483608505	0
380.31227602442	-16.906655606318	0
386.92218485259	-16.880850143458	0
387.97796930928	-13.671940118178	0
394.2049800076	-9.2613925627346	0
392.51520992435	-11.778081604771	0
395.37108910548	-11.869970536415	0
388.12187640515	-9.5708496149545	0
390.67638931924	-16.33790520334	0
390	0	0
402	0	0
398	0	0
400.30497236759	-4.5230965024345	0
391.19093113181	-8.9380412942032	0
399.12286891321	-7.3474237359085	0
404.24293589027	-7.8308494504614	0
394	0	0
396.09525891119	-6.8916051597887	0
397.45491603015	-9.914937334419	0
407.04196221796	-6.2537348945178	0
404	-3.3286523025068	0
389.6875	-20	0
393.75	-20	0
393.84212426504	-14.963859157518	0
401.39405251143	-10.648408659542	0
399.54804127045	-14.234022790505	0
402.73381005638	-13.606172713286	0
404.35404354162	-10.792249841184	0
406	0	0
406.95171790904	-9.3659521635513	0
395.78125	-17.518243887467	0
401.875	-20	0
401.69291695697	-16.720952122894	0
398.74334061309	-17.165992684726	0
406.96875	-17.125	0
405.61165195808	-14.450471974626	0
410	-10	0
410	-5	0
407.88991320958	-12.5	0
407.30980350341	-3.052157197272	0
410	0	0
410	-15	0
405.9375	-20	0
408	-20	0
410	-20	0
410	-17.5	0
397.8125	-20	0
318.45375616568	-11.586339491923	0
321.25	0	0
318.153771217	-3.02254275374	0
317.125	0	0
315.0625	-2.388355990559	0
315.78509188961	-6.7634994974586	0
313	0	0
326.36592989081	-17.222381894499	0
311.02526068543	-13.494380121446	0
311.05183426557	-9.6490485988461	0
293.33992287124	-13.987188073813	0
296.09246913784	-11.564734881742	0
292.96180672888	-10.340022242594	0
310.22764497408	-3.096784690421	0
302.82645902015	-11.569807370993	0
301.44006909308	-15.657389299581	0
306.40625	-13.981342067687	0
308.875	0	0
307.49736318711	-5.0880870804382	0
315.32846179404	-12.57553209086	0
373.4375	-20	0
320.69400763599	-15.495204039383	0
318.34364065115	-17.486573222295	0
315.55158429239	-15.846034079541	0
318.03756189901	-14.421268672408	0
320.625	-20	0
324.6875	-20	0
323.36322665556	-16.906361516118	0
300.3125	-20	0
304.375	-20	0
296.54099559631	-15.775462053474	0
299.02988565513	-17.34927283027	0
299.45860598765	-12.706431440545	0
309.55005239834	-17.045582901287	0
308.4375	-20	0
306.40625	-17.333436531476	0
306.71685520829	-9.6574966494033	0
300.89563907137	-3.9985075463571	0
297.45102614537	-4.7465485497199	0
301.44622874028	-7.4801414399774	0
298.69492624311	-9.4248908213864	0
304.74249159025	-6.9688878415196	0
304.38279541798	-3.4840523325441	0
295.21534395457	-7.8455206611583	0
300.625	0	0
296.5	0	0
304.75	0	0
291.7226972001	-6.9554328735903	0
287.81715765907	-8.8192745504114	0
296.25	-20	0
283.57186685251	-3.5565345666521	0
280	-4	0
282.52427904618	-7	0
288.25	0	0
287.95112125747	-4.4938614305857	0
291.34639613205	-3.4118381916879	0
294.24361534646	-4.7885625777532	0
292.375	0	0
280	-20	0
284.0625	-20	0
282.03125	-17.5	0
283.2356497568	-14.446229885102	0
286.55760681053	-13.022932550751	0
283.62363409573	-10.763429709451	0
280	-10	0
292.1875	-20	0
289.56193074221	-15.978390608049	0
288.125	-20	0
293.66404396272	-17.16615286773	0
285.75782736938	-16.547351199883	0
290.13012529217	-12.476777199911	0
284.125	0	0
280	-15	0
285.62546946327	-6.5866140804878	0
280	0	0
CELLS 434 1736
3	0	1	2	
3	3	4	5	
3	6	7	8	
3	9	10	11	
3	12	5	13	
3	14	15	16	
3	17	18	19	
3	20	21	22	
3	14	23	24	
3	20	25	26	
3	11	27	9	
3	28	29	30	
3	21	31	22	
3	16	22	31	
3	23	31	28	
3	29	28	32	
3	30	33	24	
3	34	15	35	
3	24	36	14	
3	30	23	28	
3	37	22	38	
3	39	40	41	
3	16	31	23	
3	20	22	8	
3	42	43	32	
3	21	42	31	
3	42	26	43	
3	31	42	28	
3	44	38	34	
3	7	20	8	
3	45	46	47	
3	7	48	25	
3	26	25	49	
3	6	48	7	
3	25	20	7	
3	8	50	6	
3	51	6	52	
3	48	6	51	
3	37	50	8	
3	46	53	54	
3	55	56	57	
3	58	59	50	
3	37	8	22	
3	60	55	61	
3	22	16	38	
3	44	34	35	
3	44	35	62	
3	39	63	64	
3	16	34	38	
3	57	38	44	
3	42	21	20	
3	15	34	16	
3	61	55	62	
3	65	64	58	
3	37	56	50	
3	62	55	44	
3	66	60	67	
3	37	38	57	
3	66	68	47	
3	58	50	56	
3	69	55	60	
3	55	69	56	
3	68	67	70	
3	60	66	69	
3	65	69	66	
3	60	61	67	
3	58	63	59	
3	55	57	44	
3	37	57	56	
3	71	68	70	
3	65	46	54	
3	56	69	58	
3	65	58	69	
3	43	26	49	
3	20	26	42	
3	72	73	74	
3	42	32	28	
3	72	43	73	
3	43	49	73	
3	43	72	32	
3	75	76	77	
3	66	67	68	
3	78	77	76	
3	47	71	45	
3	71	47	68	
3	65	66	47	
3	78	76	45	
3	53	79	80	
3	81	77	78	
3	46	45	53	
3	45	76	53	
3	71	78	45	
3	54	53	82	
3	47	46	65	
3	76	79	53	
3	39	83	40	
3	83	39	82	
3	58	64	63	
3	84	32	72	
3	85	41	40	
3	65	54	64	
3	54	82	39	
3	86	72	74	
3	33	30	9	
3	84	29	32	
3	87	88	86	
3	41	52	63	
3	54	39	64	
3	30	29	89	
3	90	91	92	
3	89	29	84	
3	9	30	89	
3	30	24	23	
3	86	84	72	
3	36	24	33	
3	93	94	95	
3	87	90	88	
3	52	41	85	
3	39	41	63	
3	51	52	85	
3	59	6	50	
3	63	52	59	
3	6	59	52	
3	84	96	89	
3	89	10	9	
3	9	27	97	
3	84	88	96	
3	98	99	100	
3	87	91	90	
3	84	86	88	
3	101	88	102	
3	86	74	87	
3	11	10	103	
3	11	103	93	
3	95	27	11	
3	89	96	10	
3	96	104	10	
3	94	93	99	
3	11	93	95	
3	99	93	103	
3	10	104	103	
3	94	99	105	
3	106	107	108	
3	4	105	98	
3	12	13	109	
3	4	106	105	
3	110	12	109	
3	111	112	113	
3	90	92	102	
3	13	114	109	
3	90	102	88	
3	102	109	114	
3	98	100	13	
3	96	101	104	
3	92	109	102	
3	100	99	103	
3	5	98	13	
3	103	104	100	
3	104	101	114	
3	13	100	114	
3	104	114	100	
3	112	92	113	
3	92	112	109	
3	115	116	117	
3	108	118	106	
3	112	119	110	
3	120	121	122	
3	110	109	112	
3	5	12	123	
3	120	119	124	
3	123	12	110	
3	125	126	122	
3	5	4	98	
3	127	128	129	
3	117	130	115	
3	4	3	107	
3	107	131	108	
3	123	3	5	
3	132	130	117	
3	106	118	105	
3	122	126	131	
3	4	107	106	
3	94	105	118	
3	120	133	123	
3	98	105	99	
3	107	3	131	
3	126	108	131	
3	131	3	122	
3	123	110	119	
3	119	120	123	
3	88	101	96	
3	114	101	102	
3	134	119	112	
3	120	122	133	
3	119	134	129	
3	132	122	121	
3	122	3	133	
3	111	127	134	
3	123	133	3	
3	135	136	129	
3	137	138	139	
3	140	120	124	
3	138	136	141	
3	135	129	128	
3	124	129	136	
3	129	124	119	
3	140	124	136	
3	135	141	136	
3	140	130	121	
3	140	121	120	
3	117	142	132	
3	122	132	125	
3	130	132	121	
3	143	144	145	
3	132	142	125	
3	130	140	146	
3	145	147	148	
3	149	142	117	
3	145	116	150	
3	149	117	116	
3	150	137	151	
3	144	149	116	
3	152	153	148	
3	111	134	112	
3	145	144	116	
3	127	129	134	
3	141	154	155	
3	135	154	141	
3	139	151	137	
3	135	128	154	
3	136	138	140	
3	141	155	156	
3	115	146	137	
3	140	138	146	
3	137	146	138	
3	139	138	156	
3	115	137	150	
3	157	147	151	
3	156	158	139	
3	115	150	116	
3	146	115	130	
3	159	160	157	
3	150	151	147	
3	161	143	153	
3	150	147	145	
3	160	162	148	
3	139	158	151	
3	145	148	153	
3	163	156	155	
3	164	165	166	
3	156	138	141	
3	147	157	148	
3	158	165	159	
3	151	158	157	
3	165	167	168	
3	152	169	170	
3	153	143	145	
3	162	171	169	
3	162	169	152	
3	153	152	172	
3	173	161	172	
3	173	172	170	
3	161	153	172	
3	152	148	162	
3	170	172	152	
3	160	148	157	
3	171	174	169	
3	159	157	158	
3	175	167	165	
3	162	160	171	
3	165	164	175	
3	168	160	159	
3	156	163	158	
3	176	177	178	
3	167	176	178	
3	167	175	176	
3	167	174	168	
3	166	158	163	
3	174	167	178	
3	171	168	174	
3	155	179	163	
3	163	179	166	
3	164	166	179	
3	158	166	165	
3	160	168	171	
3	165	168	159	
3	15	14	36	
3	23	14	16	
3	76	180	79	
3	71	81	78	
3	71	70	81	
3	77	81	181	
3	182	183	184	
3	185	75	182	
3	185	184	19	
3	181	183	182	
3	76	75	180	
3	182	75	77	
3	180	75	185	
3	181	182	77	
3	183	186	184	
3	185	19	18	
3	187	82	80	
3	188	18	189	
3	185	182	184	
3	190	191	192	
3	17	189	18	
3	17	19	193	
3	194	195	196	
3	193	197	198	
3	199	18	188	
3	9	97	33	
3	36	33	97	
3	92	200	113	
3	92	91	200	
3	111	113	200	
3	180	201	79	
3	0	202	203	
3	80	82	53	
3	204	201	180	
3	82	187	83	
3	79	201	80	
3	205	206	207	
3	203	204	199	
3	205	201	202	
3	199	204	180	
3	1	0	203	
3	18	180	185	
3	195	208	209	
3	203	202	204	
3	202	201	204	
3	210	211	212	
3	2	1	213	
3	180	18	199	
3	205	202	0	
3	188	203	199	
3	209	214	215	
3	188	196	213	
3	215	214	213	
3	215	195	209	
3	214	2	213	
3	195	215	196	
3	188	213	1	
3	196	215	213	
3	194	196	216	
3	194	212	195	
3	188	1	203	
3	188	189	216	
3	217	218	219	
3	198	17	193	
3	211	208	195	
3	220	191	212	
3	221	198	222	
3	194	216	221	
3	188	216	196	
3	220	212	194	
3	17	216	189	
3	221	216	198	
3	191	220	223	
3	223	192	191	
3	198	197	222	
3	194	221	219	
3	224	225	218	
3	221	222	217	
3	220	194	219	
3	222	226	224	
3	210	212	191	
3	217	219	221	
3	218	220	219	
3	227	228	192	
3	229	208	211	
3	230	231	232	
3	220	218	223	
3	233	234	235	
3	191	190	210	
3	192	223	227	
3	235	236	237	
3	238	239	240	
3	227	223	236	
3	227	235	234	
3	236	223	218	
3	241	242	243	
3	244	243	232	
3	225	237	236	
3	245	246	247	
3	190	248	210	
3	234	228	227	
3	240	249	241	
3	212	211	195	
3	229	211	210	
3	248	190	246	
3	248	229	210	
3	245	248	246	
3	229	248	245	
3	250	190	192	
3	190	250	246	
3	249	239	247	
3	192	228	250	
3	231	244	232	
3	249	240	239	
3	234	233	251	
3	240	241	252	
3	252	238	240	
3	246	249	247	
3	249	242	241	
3	250	242	246	
3	246	242	249	
3	244	252	241	
3	250	228	242	
3	241	243	244	
3	242	228	243	
3	253	228	234	
3	253	243	228	
3	254	231	230	
3	230	251	254	
3	253	230	232	
3	234	251	230	
3	230	253	234	
3	243	253	232	
3	197	193	186	
3	216	17	198	
3	193	184	186	
3	222	197	226	
3	193	19	184	
3	222	224	217	
3	224	218	217	
3	225	236	218	
3	233	235	237	
3	207	80	201	
3	227	236	235	
3	187	80	207	
3	83	187	206	
3	205	207	201	
3	206	187	207	
CELL_TYPES 434
5 5 5 5 5 5 5 5 5 5 5 5 5 5 5 5 5 5 5 5 5 5 5 5 5 5 5 5 5 5 5 5 5 5 5 5 5 5 5 5 5 5 5 5 5 5 5 5 5 5 5 5 5 5 5 5 5 5 5 5 5 5 5 5 5 5 5 5 5 5 5 5 5 5 5 5 5 5 5 5 5 5 5 5 5 5 5 5 5 5 5 5 5 5 5 5 5 5 5 5 5 5 5 5 5 5 5 5 5 5 5 5 5 5 5 5 5 5 5 5 5 5 5 5 5 5 5 5 5 5 5 5 5 5 5 5 5 5 5 5 5 5 5 5 5 5 5 5 5 5 5 5 5 5 5 5 5 5 5 5 5 5 5 5 5 5 5 5 5 5 5 5 5 5 5 5 5 5 5 5 5 5 5 5 5 5 5 5 5 5 5 5 5 5 5 5 5 5 5 5 5 5 5 5 5 5 5 5 5 5 5 5 5 5 5 5 5 5 5 5 5 5 5 5 5 5 5 5 5 5 5 5 5 5 5 5 5 5 5 5 5 5 5 5 5 5 5 5 5 5 5 5 5 5 5 5 5 5 5 5 5 5 5 5 5 5 5 5 5 5 5 5 5 5 5 5 5 5 5 5 5 5 5 5 5 5 5 5 5 5 5 5 5 5 5 5 5 5 5 5 5 5 5 5 5 5 5 5 5 5 5 5 5 5 5 5 5 5 5 5 5 5 5 5 5 5 5 5 5 5 5 5 5 5 5 5 5 5 5 5 5 5 5 5 5 5 5 5 5 5 5 5 5 5 5 5 5 5 5 5 5 5 5 5 5 5 5 5 5 5 5 5 5 5 5 5 5 5 5 5 5 5 5 5 5 5 5 5 5 5 5 5 5 5 5 5 5 5 5 5 5 5 5 5 5 5 5 5 5 5 5 5 5 5 5 5 5 5 5 5 5 5 5 5 5 5 5 5 5 5 5 5 5 5 
CELL_DATA 434
SCALARS Coverage double 1
LOOKUP_TABLE default
0.023293964040068 0.43518255475926 -0.17683631596876 0.48687103846477 0.40466636193054 0.71129779946652 0.47781492601615 0.02217687604158 0.50562710082967 -0.28229800678457 0.71403405606246 0.4192770320094 0.16392492453902 0.4116714537423 0.4696472837952 0.099893491394795 0.44602186017529 1.0443100175176 0.69254716483221 0.5371881764789 0.41339087770156 -0.3204110775082 0.55740382464519 -0.026040326311448 -0.22054007939821 0.033095511876208 -0.2694943744934 0.12493894488213 0.44498863257348 -0.16823328100684 0.5114971733755 -0.28050457364879 -0.33886734899375 -0.24634331358598 -0.24141720482336 -0.10848856811972 -0.28998195121951 -0.27870200301947 0.0036004318381966 0.13282317601677 0.54195163905798 -0.033208119333924 0.13323036487138 0.72481295810539 0.51298117554301 0.75695400889188 1.0501782875802 -0.17479800901326 0.39585532444846 0.3485872192111 -0.12488669499251 0.64186601799717 1.0401614843932 0.083583592033575 0.20080651718795 0.72066034118996 0.67088375104707 0.48005761293916 0.35248892401509 0.31239536356518 0.51115598148515 0.48154428313516 1.0659285042716 0.53658431660501 0.42382556973484 1.0587010375706 -0.073865872953765 0.4327122238834 0.38377599196079 0.85623053526687 0.14766206865792 0.52242020212253 0.40456173648741 -0.33347971002943 -0.22664630047309 -0.40724587577046 0.0025511761384444 -0.36914220792943 -0.37796676834675 -0.29130834919494 0.44870494721266 0.73239364108603 0.46529925166711 0.52115860325271 0.51724878723895 0.54783408911584 0.379384376622 0.024167550907053 0.59526237568569 0.41753502841347 0.46245934505156 0.51440048051428 -0.061358188430538 0.41329598755397 0.34325915408233 -0.31415584661157 -0.27211376914111 -0.049073607939946 -0.21061377446025 -0.36373109569788 0.026876230060097 -0.17161485055533 -0.37199731552163 0.48299535367084 0.048842899512725 -0.32565735116992 -0.26923285528102 -0.13951994284501 0.39768470945927 -0.33309520126166 0.21222983964882 0.41212233155299 0.33339378677017 -0.30027242349233 0.65970201147803 1.1239753255938 -0.31776113506947 -0.33493899608974 -0.25258415120123 -0.34071031902636 -0.15874035794024 -0.21629431913851 -0.22205390424933 0.26316898404865 0.53749555968184 1.0020180199279 -0.073247322636416 0.59713903726556 -0.35338934269537 -0.26063463181711 -0.1337971464665 -0.38489920461926 0.45178839113314 0.48760927735165 1.0983342835481 0.49194155888942 0.35470014820323 0.83457564068819 0.85529700699946 0.52258926635696 0.47170614513671 0.90949246673759 0.96147952926964 0.49410974545225 0.22812986859698 0.60919618991902 0.078531647771869 -0.33909662923173 -0.29041450457022 0.32473540325089 -0.24612408532611 0.065207478850465 0.54383067668683 0.16976503076443 -0.1655617157094 0.55532797446833 0.42130619982972 0.50933705023122 0.23855459051017 0.50424314353773 0.43935225075289 -0.31923770967996 -0.25847782195707 0.38212314375296 1.2299923771496 -0.17629841231192 0.58372729450544 -0.13766418147009 0.35708942652308 0.19559118425381 0.15716411969334 1.1785076907139 0.4240079815751 -0.052079883044962 0.29476046191659 0.50334673322117 1.0522661933067 0.43077545909481 0.46091503616021 1.0626240296387 0.86184031538208 0.55415461211117 1.1637681457194 0.52726110248521 0.57826564183653 0.62726094730285 1.4106657367986 0.51335519666296 0.089063759079089 0.29642377716554 -0.082453549991985 0.051123293379894 -0.34277413702396 0.57667622600846 -0.44536998627676 0.49831778092197 0.53033186388509 -0.24909601526405 0.59554448264908 -0.44305500162612 0.29644619288072 0.18632859960024 -0.44249155949048 -0.099406114879745 -0.28619194473065 -0.25088928129859 -0.030791144863506 -0.54075132652827 0.65330754673343 0.5718533584906 0.68250818576319 0.63245971176511 0.3926205739239 1.4040863807988 1.3090421723608 0.54732285117101 0.33456940565518 1.3709975743591 0.36479472793029 0.6120624161234 0.5734618369582 1.4236390841305 0.24660616201268 -0.41546096031908 0.45994786556521 -0.29054458151299 0.053919773876504 0.023516499441134 0.34123230986459 0.0623693838346 -0.10577046761071 -0.28577061502155 0.54448661876012 0.35696768641282 0.36357139854308 -0.1613247153734 0.5504946145162 0.43114158755404 -0.26879841023401 0.34260878708862 0.56032516556082 0.31486621314431 0.53866197555327 1.6067380262482 0.25883011874357 0.68488759049098 0.1977608240364 0.60813190131679 -0.27961444231573 -0.62007834593907 -0.56088992980981 0.44473970376601 0.078450580401105 0.1646020590122 -0.22468029071669 0.3906898620044 0.1346972466074 0.13757702331574 0.36895750012955 0.16026987185079 1.499519129229 1.0999363692735 0.52298704756914 0.66537798689985 0.91449028272243 0.52801292233944 -0.13157758550042 0.217745994649 -0.43988291947054 0.42606492239514 -0.66274367344994 0.24798280834238 -0.26400327910768 -0.72246137090936 -0.58462299392238 -0.68741280995021 -0.26432816387752 -0.4749720773425 -0.50075235016963 -0.12212930929157 -0.24772020381318 -0.49352935233842 -0.60754084995537 -0.3284635894535 0.25927297160914 0.019430314368487 1.0535576425958 0.56499949946792 0.31316132741986 0.68967438861011 1.068473089379 1.0688619688947 0.86090622471459 0.34441360504473 0.56078327708148 1.1404132755453 0.4650191649295 0.4882529090815 0.45616468459869 0.70641016985709 1.2124114115784 0.51242133605478 -0.22092296563371 0.29402651561191 0.52141895773554 0.10491138898462 0.44846537111311 0.45719132079194 -0.41831689991633 0.68040180535808 0.1665374569839 0.64664600109706 1.0299139557118 -0.37703378843218 -0.36203781012696 -0.3660326748514 -0.011551280150384 -0.3627239446761 -0.10962285300473 -0.15771834288993 -0.26030032696302 -0.14171689072531 -0.30694986435836 -0.26229552121778 -0.40553763094642 -0.076127821671756 -0.40566884376048 0.38459118254698 0.2481587140664 -0.36040653559396 -0.339787472394 -0.49539445440038 -0.01072768826278 0.15749999837938 -0.35484643782251 -0.15966301000121 0.48740001830978 -0.3602689987819 0.3263895773492 0.3390659406367 0.36655064431145 -0.35903522864816 -0.48398437802744 -0.25561856819136 0.065421124782355 -0.40864850974733 -0.40549896602514 0.30305157131977 0.42140810670544 0.52128680137061 0.092388826023331 0.17593173301398 0.45646690657903 0.48273532374021 0.043688622900742 0.25790483799594 0.47628136568872 0.62895084541319 0.49691207643451 0.31866446529001 0.63229857530448 0.46825662209841 1.2247540553669 0.43488618951827 0.59990059188308 1.206096445875 -0.13955754439553 0.40279375684959 0.5309740661082 0.51322134562507 0.23725361000476 1.0857916343776 0.55059486713592 0.44958137375469 -0.34760263431773 0.53553635823031 0.2539630152594 -0.59750152900749 0.39502884424524 0.14247026043368 0.26925350021424 0.32029664652602 0.41893132091292 1.3021609631585 -0.54857911652048 -0.26585048474244 0.55430165584835 -0.2698964047444 -0.31073040911062 -0.47134417304676 -0.20099025158705 -0.39267282626092 -0.37724392566503 -0.60205443637374 0.06701070289193 0.11177823092258 -0.46746116874954 0.34830043172321 0.37445327938486 -0.38363398407815 1.4909672644926 -0.34451962679219 -0.55488565675601 -0.22260572081229 0.059563871664649 0.2332604731574 0.023451214040536 -0.13666018310636 0.48727474141926 0.20780323331761 0.58571723202421 0.38495461514804 0.44107602667565 1.0191557555 1.4035622925816 0.26488738009329 0.66456247560488 0.066565422258747 0.48553611878413 1.1802394936361 0.45882017027983 0.81355755249632 1.1876352093099 0.43015119061434 0.69608237192129 0.65299375606967 0.51142945192315 1.4742488528706 -0.24575887842768 0.42530457286562 -0.26875031380195 -0.31235921695528 -0.2995638866742 -0.29876749846684 
SCALARS Marker double 1
LOOKUP_TABLE default
0 1 2 3 4 5 6 7 8 9 10 11 12 13 14 15 16 17 18 19 20 21 22 23 24 25 26 27 28 29 30 31 32 33 34 35 36 37 38 39 40 41 42 43 44 45 46 47 48 49 50 51 52 53 54 55 56 57 58 59 60 61 62 63 64 65 66 67 68 69 70 71 72 73 74 75 76 77 78 79 80 81 82 83 84 85 86 87 88 89 90 91 92 93 94 95 96 97 98 99 100 101 102 103 104 105 106 107 108 109 110 111 112 113 114 115 116 117 118 119 120 121 122 123 124 125 126 127 128 129 130 131 132 133 134 135 136 137 138 139 140 141 142 143 144 145 146 147 148 149 150 151 152 153 154 155 156 157 158 159 160 161 162 163 164 165 166 167 168 169 170 171 172 173 174 175 176 177 178 179 180 181 182 183 184 185 186 187 188 189 190 191 192 193 194 195 196 197 198 199 200 201 202 203 204 205 206 207 208 209 210 211 212 213 214 215 216 217 218 219 220 221 222 223 224 225 226 227 228 229 230 231 232 233 234 235 236 237 238 239 240 241 242 243 244 245 246 247 248 249 250 251 252 253 254 255 256 257 258 259 260 261 262 263 264 265 266 267 268 269 270 271 272 273 274 275 276 277 278 279 280 281 282 283 284 285 286 287 288 289 290 291 292 293 294 295 296 297 298 299 300 301 302 303 304 305 306 307 308 309 310 311 312 313 314 315 316 317 318 319 320 321 322 323 324 325 326 327 328 329 330 331 332 333 334 335 336 337 338 339 340 341 342 343 344 345 346 347 348 349 350 351 352 353 354 355 356 357 358 359 360 361 362 363 364 365 366 367 368 369 370 371 372 373 374 375 376 377 378 379 380 381 382 383 384 385 386 387 388 389 390 391 392 393 394 395 396 397 398 399 400 401 402 403 404 405 406 407 408 409 410 411 412 413 414 415 416 417 418 419 420 421 422 423 424 425 426 427 428 429 430 431 432 433 
SCALARS Resistivity double 1
LOOKUP_TABLE default