# vtk DataFile Version 3.0
d-2__ created by libgimli-v1.5.0-1-g5991b6ac
ASCII
DATASET UNSTRUCTURED_GRID
POINTS 3503 double
375.1578521782	-10.539151806402	0
374.30878561874	-11.333149474909	0
375.3080427115	-11.55073527979	0
353.15258822552	-10.422449633894	0
354.18292561154	-11.057857317938	0
354.09071294025	-10.152986335986	0
314.51658123431	-21.368484601131	0
314.96475377565	-20.187401839325	0
314.09486661769	-19.791134994325	0
335.06063641948	-18.727786604686	0
333.91590926067	-19.498034653476	0
334.91220138096	-19.749030751392	0
312.87716728938	-15.00604677148	0
313.69828752852	-15.580536085108	0
313.98359442208	-14.619871526021	0
341.70988577375	-28.660260789144	0
342	-30	0
343	-29.123588643481	0
348.7531633215	-17.546589094766	0
347.86234665953	-16.451218929466	0
347.86425349804	-17.846833147372	0
375.15001567568	-2.6543707282398	0
375.08920457871	-4.3757358784135	0
376.22037756121	-4.0797248193676	0
331.24701524002	-29.00972685821	0
331.5383179196	-27.800276696779	0
330.46657948895	-28.04094051305	0
337.48803825856	-27.051366115864	0
338.32343370468	-27.334799680269	0
338.02796277779	-26.445571565557	0
357.20605079121	-14.709569472276	0
357.85756660241	-13.654967184957	0
356.78162696934	-13.544870688863	0
328.54735744887	-23.256550472402	0
327.77170479073	-22.704596806248	0
327.40759358459	-23.530845980281	0
346.62961148435	-22.534259875623	0
345.7207320123	-21.54193898275	0
345.78582542797	-22.39470673296	0
347.28490189136	-26.096656943139	0
346.55078637646	-26.971375159464	0
347.59285754109	-27.19630273383	0
333.01506724416	-16.343217962281	0
333.95176015367	-16.823038042938	0
334.02850253057	-15.519019049605	0
341.11027567368	-27.864123774538	0
341.93773697254	-27.308539202209	0
348.23976421434	-26.422192246908	0
348.23606287066	-25.506374143487	0
340.7815083627	-22.561631757902	0
339.95527348683	-23.411233939364	0
341.08560404588	-23.767381049592	0
328.20142864825	-19.8594185078	0
327.41468444396	-20.437670481708	0
328.6128679825	-20.679263753271	0
344.63906255701	-27.131301422613	0
344.91507157142	-25.969027191901	0
343.75330397773	-26.247161011632	0
342.60533908547	-26.367001824738	0
341.59001971585	-26.354536308704	0
342.77127924898	-28.039077133929	0
343.87641950859	-28.123595788103	0
342.98714802434	-24.466235767669	0
343.99938007848	-23.757278462125	0
342.82766487631	-23.364445574604	0
343.3902395715	-27.213238459131	0
344	-30	0
344.47000762137	-29.026773541979	0
345.4283684451	-28.527152251101	0
345.03125	-30	0
342.10804674891	-25.516345982921	0
343.09257647957	-25.476143512093	0
340.2340649423	-27.389127803649	0
341	-30	0
345.56872553926	-26.738162001498	0
346.41565706211	-25.356068680999	0
344.65932317038	-24.802127402381	0
341.28276686316	-24.825461740858	0
340.76171399362	-25.767221706505	0
340.5	-28.8771229825	0
340	-30	0
341.86534410235	-23.171226400586	0
342.02816341031	-24.13915449407	0
345.86814224652	-27.661654107097	0
346.75696928487	-27.857963937904	0
339.71109539013	-24.570917083129	0
339	-30	0
339.5	-29.104597936777	0
347.09375	-30	0
348.125	-30	0
347.94100745271	-28.986442887947	0
346.11461824861	-29.104624705985	0
338.99376444428	-23.814330701581	0
339.11289562393	-25.324175349654	0
339.80007322831	-26.056412468667	0
338.16751139807	-28.66810303358	0
346.93840036055	-28.74994701989	0
348.27804492159	-28.013017481755	0
345.67470620743	-24.64403880213	0
338.21670176545	-24.974779378868	0
338.25762748325	-25.727537191637	0
342.51081497097	-22.449493860525	0
341.77753932575	-21.8171669437	0
346.00484330547	-23.221435925561	0
345.08565052908	-23.802012599889	0
343.52096580134	-22.493405775632	0
343.07764533576	-21.050837360621	0
339.03989993998	-20.139486053589	0
338.05817368029	-21.216453195392	0
339.57790204509	-20.912859002522	0
347.59468273575	-24.852640236576	0
339.75341858333	-22.388374595877	0
340.49294446791	-21.137022665224	0
339.32785194185	-27.993107166835	0
339.44621372508	-26.908666170907	0
349.32293879219	-28.919860490172	0
350.1875	-30	0
350.38733685352	-28.953973165014	0
346.67900715046	-24.340483727014	0
349.2451130525	-26.505912038336	0
344.79971102888	-22.731845314405	0
350.48339173151	-25.804360955916	0
349.06582591228	-25.67780995318	0
346.99172996874	-23.389488736344	0
348.23524534544	-24.087130531198	0
348.87668944105	-24.851901763769	0
349.83477727934	-25.067106214402	0
339.00599169901	-21.661504806153	0
338.68805901562	-22.736146736974	0
341.6699128258	-20.396834493094	0
343.00311025676	-20.002223728293	0
337.64588799407	-22.601008203293	0
337.97354771478	-23.599518077485	0
336.5696025807	-22.61171969468	0
344.01022177956	-20.303674235911	0
340.54565406524	-19.914996930877	0
337.10364236907	-24.462448472632	0
336.20853425439	-23.62568946289	0
342.68199931048	-17.840113055478	0
341.22406946366	-18.187754786985	0
342.34580285034	-19.1818012753	0
335.14053768741	-22.674110553206	0
337.12375843727	-21.688997464684	0
336.33717320029	-25.697849369013	0
336.05041231577	-24.691980125629	0
335.82963242213	-22.06026340325	0
334.93358930147	-23.981495255923	0
334.09073184732	-23.178006286527	0
336.33951510241	-21.088377353552	0
334.06417241352	-21.777153276644	0
332.94057652017	-22.995946034449	0
336	-30	0
338	-30	0
337	-29.19774860681	0
348.74329295316	-23.420805856725	0
348.6792793684	-22.585339995972	0
347.95812535801	-23.128209221327	0
350.3501812348	-24.197671888416	0
349.45939240383	-27.707232445869	0
351.734375	-29.144248289179	0
352.84882294577	-27.889530040813	0
351.21875	-28.288496578358	0
351.34132639573	-24.395632880694	0
351.20928807154	-27.311279310884	0
351.88182217129	-26.602236998598	0
349.21517795501	-16.794133156697	0
350.32058079816	-17.10394245671	0
350.10490030143	-16.258997873637	0
345.48526666967	-19.459093843261	0
345.58821240599	-18.247993180035	0
344.35288139517	-19.158887816403	0
346.65649586073	-19.484436504778	0
346.25126390996	-20.541681308597	0
347.61936264003	-20.459777442039	0
338.81243336677	-26.237938671526	0
337.25429811215	-26.200727719844	0
337.48612896069	-25.391990373751	0
344.3789271865	-21.440339481862	0
347.84391578498	-19.275149678956	0
347.09871655868	-18.52029622732	0
337.60176175697	-27.926173010404	0
336.67505358025	-27.817799716283	0
347.86829711434	-22.189009469588	0
348.66449579864	-21.682814900134	0
347.05594685479	-21.709163303783	0
345.11942480936	-20.572008845279	0
349.70082943376	-23.423140079513	0
335.314284051	-25.479440285085	0
334.5	-28.976922582051	0
334.33986495096	-27.849516635116	0
333.34910807472	-27.740283311285	0
336.53572602175	-26.855611412651	0
335.54331808192	-26.911276082219	0
335.81738102898	-28.747995168995	0
333.93056661948	-24.189841038622	0
334.26590313415	-25.217182746704	0
335.33231591928	-27.881566878836	0
343.34799546399	-19.052385492896	0
347.86639712078	-21.306749084285	0
332.44066622941	-25.866570505767	0
331.52450997757	-25.650873015122	0
331.75543805194	-26.723521764444	0
332.96839617983	-23.980280207154	0
331.88423136108	-24.781121204831	0
333.22370725625	-24.931334333518	0
334.54274587168	-26.337090073084	0
348.37824841791	-19.954693469505	0
348.97717262232	-19.284064923524	0
343.87964211248	-16.305048663342	0
344.02122269338	-17.494228580989	0
344.5770577457	-16.833546828862	0
335.36702793844	-21.261729140618	0
334.35728045579	-20.613703982693	0
332.76716750013	-20.831752502658	0
331.97935942445	-22.7427623764	0
331.37603452391	-23.532723979393	0
330.45030150643	-23.147364895966	0
329.85375531869	-23.953352419898	0
329.62823670155	-24.971853382768	0
330.72649853393	-24.524773576581	0
333.28642636179	-26.745495841665	0
334	-30	0
332.89841818658	-28.629333215161	0
333	-30	0
335	-30	0
351.1273795905	-22.886616896716	0
349.71557672976	-13.62730617622	0
349.79927624224	-15.266743088145	0
350.74835931206	-13.720487022207	0
348.5970701767	-20.790999731451	0
344.3667220018	-18.290761620276	0
343.49995917222	-18.193526018748	0
339.89448278604	-18.879573750623	0
341.31155237406	-19.218968735785	0
344.92337033645	-17.624445414311	0
336.05068363238	-18.436618124115	0
335.86757826531	-19.371073030239	0
336.74969929197	-19.083232889388	0
331.77701714214	-20.558836602387	0
332.59541827209	-19.522254411682	0
331.6194112034	-19.298349428515	0
337.5749989037	-20.287490296183	0
337.55751687101	-18.626702264589	0
337.34493491814	-17.714790994284	0
329.46044245548	-22.987170320251	0
328.98001713547	-24.018429056599	0
330.77827746474	-26.224462347356	0
343.0048142347	-16.324415146777	0
336.62798969546	-20.003111265311	0
335.69751075461	-20.337636024226	0
332.70858064783	-21.925490941256	0
331.53111948511	-21.855563849241	0
329.84415997071	-25.927850793118	0
328.95499476284	-21.890591080509	0
328.62855296423	-24.954454290973	0
332.51290758714	-27.293603906812	0
330.15948975148	-21.806002538944	0
330.045090233	-26.914273864359	0
329.14845038392	-27.891882928412	0
330.87360921817	-21.047441701583	0
349.92047092515	-22.113625364204	0
350.84628384118	-15.532137452466	0
351.40174782903	-16.840228582855	0
346.91459909339	-17.475678412379	0
345.43954356407	-16.873185144727	0
341.9604159402	-16.112852819254	0
342.40979727961	-15.146631919165	0
343.76785714286	-14.975595238095	0
343.22758013134	-14.111040438175	0
336.09704691682	-15.119919281858	0
337.27778470988	-15.464703559456	0
336.71577863016	-14.370552244331	0
329.10049411687	-26.566219812261	0
330	-30	0
332	-30	0
329.50754699687	-20.476833484984	0
330.91122877749	-20.006304858785	0
329.51848443013	-19.265692592857	0
327.66598256562	-19.008729177056	0
326.46803021755	-20.198531267227	0
348.70195976579	-18.428079682461	0
346.71599330899	-16.341324629915	0
344.64764407248	-15.885677865779	0
344.98160547133	-14.682542506669	0
349.63137339717	-17.638210725982	0
348.78697584748	-15.643448532263	0
339.37208021104	-18.143939206744	0
338.6395644571	-19.049087909466	0
344.16260929477	-13.950514570436	0
335.32141449427	-15.70538852538	0
340.06553628742	-11.539787515711	0
340.81850540584	-12.101186450115	0
340.38375806882	-10.656121201605	0
333.90555425581	-18.246885988841	0
334.82969977222	-17.403419764475	0
336.42152784049	-17.559573016758	0
[...]
CELL_DATA 6713
SCALARS Coverage double 1
LOOKUP_TABLE default
0.20143938197379 0.25007873877583 -0.40389969084255 -0.32395039134418 -0.16599672465811 -0.62627286220718 -0.23801743555556 0.55252599886352 -0.64110251657039 -0.56649226638398 -0.069593050705255 -0.47194910685957 -0.37671793466113 -0.54192489004442 -0.22336082415822 -0.58704623575938 -0.5194055326954 -0.42397449303388 -0.36674598883465 -0.53337641004216 -0.54618272640305 -0.59980046137222 -0.44360247923292 -0.57182646166992 -0.628341350073 -0.60338142576042 -0.54389446125668 -0.6032951668275 -0.63499756177704 -0.62252863728661 -0.54912208450799 -0.48550885638228 -0.56451793743298 -0.63420762425643 -0.57556746984575 -0.58495831306865 -0.57009559028587 -0.54088017591328 -0.57854561927381 -0.51951303493058 -0.48069957380588 -0.51560811343193 -0.49823325154031 -0.64147268507269 -0.50189089536806 -0.52030946257168 -0.43580124785655 -0.57951278268826 -0.55549785782275 -0.56546961671306 -0.51434999506369 -0.54178288768595 -0.47977020420995 -0.52060827020607 -0.4957911759047 -0.64741852160241 -0.60303872437612 -0.62936189497112 -0.63778365521801 -0.63916923148262 -0.5006972252016 -0.59457561777854 -0.53526320563433 -0.4384411265988 -0.45854419811379 -0.55877285043226 -0.59614258955787 -0.50510178153263 -0.63922573745037 -0.59517753681581 -0.4900457823107 -0.47695627332752 -0.46628208476336 -0.4450732675709 -0.46346852942194 -0.42306362291154 -0.51404649260957 -0.45574416269333 -0.39608340214257 -0.44201031165779 -0.41473024912908 -0.37117271023541 -0.34569777341247 -0.40918307825006 -0.39716508328247 -0.40590487244066 -0.37120255405015 -0.48606867533267 -0.45488742085977 -0.49972411206348 -0.37296061840951 -0.59746206558856 -0.57891718979304 -0.50614891447188 -0.5530620162421 -0.52475464971742 -0.60221178466838 -0.55682050463865 -0.56626280268503 -0.59724204803695 -0.60634046693755 -0.63736938698023 -0.52324684776945 -0.57316857267503 -0.60871147453063 -0.47482584268376 -0.55827030258447 -0.42218080066941 -0.52627260532652 -0.44389046338914 -0.541359532796 -0.52688844096913 -0.56112036807051 -0.51840030914649 -0.49717193261162 -0.49873710622302 -0.41398775591181 -0.45308527118441 -0.41598035836808 -0.39577037898618 -0.38132277731447 -0.32529815782063 -0.4349705021519 -0.43628959426946 -0.37712530743641 -0.43634371673757 -0.41789302997376 -0.47626172956707 -0.32326159970632 -0.33079782131052 -0.39754354588579 -0.43803316399185 -0.47470556125646 -0.48080499828578 -0.26481740420819 -0.44639492578797 -0.39143466755884 -0.40980202681144 -0.44628619775927 -0.5130210709728 -0.33263070071254 -0.42138306128202 -0.46137711828022 -0.39336155390109 -0.43877206666972 -0.65582545178867 -0.41584051994725 -0.48918845470212 -0.49091675588114 -0.500650986884 -0.5668635334886 -0.62180777656824 -0.49133701350659 -0.50299547983405 -0.55647726776234 -0.47966340124832 -0.21977304286767 -0.27750571693835 -0.31420197904938 -0.43726710092103 -0.52507303854691 -0.48259844028342 -0.54654847753407 -0.54524241104619 -0.55874440267009 -0.57818414413214 -0.54261109259255 -0.64320843495242 -0.48550661336078 -0.53203236947768 -0.41015722285385 -0.37871332364134 -0.45539857988074 -0.41948215099844 -0.49079851774983 -0.47598180729851 -0.46669715671807 -0.44342629437725 -0.28502809859207 -0.3668019378772 -0.48490527460068 -0.6015726027905 -0.59915487892603 -0.59045558010368 -0.40122468574921 -0.33549318325588 -0.46440774432108 -0.40050060052461 -0.3846060799793 -0.37474661047569 -0.41442669284996 -0.37654863611702 -0.30478441098547 -0.34786305355053 -0.37716094919418 -0.39969557526589 -0.45333249021539 -0.43327296356963 -0.50885470445869 -0.62817107589086 -0.61631835683611 -0.64650217435862 -0.61528348099056 -0.55835316531205 -0.58425286809837 -0.62064525290198 -0.62421534535847 -0.33503515932812 -0.30743072993526 -0.45925827341708 -0.52058845684238 -0.43514756772993 -0.47722491914627 -0.5529055079492 -0.53446962364299 -0.50751573166639 -0.64924673479338 -0.58656096893655 -0.6178717034633 -0.56027144768951 -0.56315743309413 -0.53971754362989 -0.55964376391896 -0.5270499327028 -0.51621819590668 -0.5060485771697 -0.51114713461078 -0.55320993504085 -0.58482128315684 -0.59463471992987 -0.5104664134649 -0.34302090938051 -0.29839297510321 -0.36960542947193 -0.36882895083279 -0.56863378824352 -0.5115391941127 -0.33952942549864 -0.58687731371604 -0.31256101006247 -0.34733139336825 -0.34349221811606 -0.30081266297259 -0.21884156452777 -0.29235519323409 -0.26808137420746 -0.41116044432608 -0.48041303199727 -0.38624125942844 -0.38822648490068 -0.50810206868851 -0.55676294148531 -0.47305890055726 -0.51363416885895 -0.47195499974555 -0.50197450072996 -0.46684055052469 -0.5183700017287 -0.49967714528583 -0.553130554421 -0.55026541920643 -0.54521452384568 -0.539077150309 -0.62618964870892 -0.55518704546227 -0.58807961295059 -0.66821110680972 -0.65760659051155 -0.44203124797145 -0.089349465948613 -0.30591285785435 -0.32521163087573 -0.29418943411412 -0.30316887899537 -0.27224843616165 -0.26394721894277 -0.27630707164008 -0.35025566134838 -0.276437206931 -0.23321401263874 -0.30677152270578 -0.35060138717744 -0.37265340393998 -0.28647209036902 -0.48373645622616 -0.51587550105939 -0.54622831480763 -0.54206906074545 -0.34183793174151 -0.66008661462611 -0.27164105324105 -0.22982057154285 -0.34861523588205 -0.32414992632545 -0.29488391249863 -0.3509217788687 -0.43314115132986 -0.49352306236608 -0.54541995878121 -0.45177667896217 -0.52044384350289 -0.54770916201408 -0.60348681324887 -0.49190426399638 -0.48387754253877 -0.46983579284295 -0.44343520711478 -0.44149624563063 -0.61836566110337 -0.4019331714323 -0.44717573484771 -0.39762138682093 -0.4089637661833 -0.66675570923641 -0.62790545476104 -0.65415520080796 -0.6016078020846 -0.5802560545737 -0.41224901317084 -0.20235233150114 -0.25429672126701 -0.24053877462327 -0.30189286714262 -0.3036022729766 -0.1873023100414 -0.13133195072107 -0.33846038607524 -0.15590710467709 -0.53442943398332 -0.56878891457702 -0.59498581602339 -0.59907513139529 -0.56909051901306 -0.67847715751815 -0.35618704990337 -0.36007450362844 -0.35544991932148 -0.40010631643041 -0.39773901832658 -0.34937124451999 -0.27191333029871 -0.25670542242286 -0.28431221835321 -0.23651323177866 -0.22214698381843 -0.25350298386793 -0.15152081570429 -0.25406829142224 -0.20392473061744 -0.21775636028814 -0.3150276533219 -0.34938170994472 -0.37027863737837 -0.30735316413152 -0.36938664273066 -0.35471671325901 -0.3952217519997 -0.36517069668879 -0.27954100293307 -0.33679811895525 -0.35823427592606 -0.3177082474172 -0.11604467337584 -0.21185237323065 -0.3269588845239 -0.28957311109254 0.16013845616883 -0.31132146186337 -0.27452715908381 -0.32103479524847 -0.2504820338203 -0.27634386837854 -0.28768721786172 -0.28788680877194 -0.395530971566 -0.37381798673138 -0.35344808204393 -0.37670289982402 -0.34028653605449 -0.33840876454248 -0.31061207201116 -0.32150972584923 -0.40279382225211 -0.43083058245624 -0.14781439944264 -0.033023233725033 -0.19127149218029 -0.17412437374644 -0.26897887741542 -0.31593520189753 -0.3036557076919 -0.35255786783408 -0.29120667286288 -0.25850761457051 -0.31870691960577 -0.3198430556589 -0.25574504883654 -0.35102124037982 -0.38828560857702 -0.42831656138637 -0.17849434650357 -0.12759708762239 -0.17705540352258 -0.19953018969764 -0.13062187649386 -0.13748192864433 -0.19141453543654 -0.2253960148735 -0.24777475689729 -0.30318653290367 -0.32396277651764 -0.28961610023328 -0.2687849672362 -0.25189720740666 -0.24140154377873 -0.2165633323156 -0.16127239586204 -0.23398014560055 -0.049435508129424 -0.20171009882714 -0.1784463552155 -0.28361353751947 -0.41318483075345 -0.30893635799028 -0.30945223321922 -0.32915024258885 -0.17590829811897 0.16969555327225 -0.16163835302393 -0.18696206568669 -0.24549346104122 -0.24052727789441 -0.20880972775844 -0.20144768475046 -0.25082023050405 -0.26721950469544 -0.17871172868124 -0.21307901752981 -0.24599423244157 -0.26006368415885 -0.27874821267226 -0.25930372836324 -0.15369759230718 -0.26972192328129 -0.24474872779864 -0.26677621292874 -0.16146943775958 -0.1882815695681 -0.29278683534019 -0.2844574601987 -0.30785390728721 -0.33350592494911 -0.25155047244326 -0.28335425633119 -0.098885504293189 0.020760286283739 -0.20013363446611 -0.13477260073755 -0.26415118922203 -0.23406988705826 0.015928583019228 0.18579861227827 -0.38581784798753 -0.29511985048639 -0.30273143905952 0.19658665807427 -0.064629703363171 -0.081255462533133 -0.19566475252769 -0.01526844482848 -0.2905119637618 -0.31811846691156 -0.25231307280239 -0.35433797899762 -0.22421817361579 -0.23327348657048 -0.13736899458378 -0.11080670602216 -0.1275364080142 -0.064369218855273 -0.092044959974366 -0.02970120512056 -0.16974045810163 -0.067397638440676 -0.084886370249765 -0.12413712664003 -0.21973905335837 -0.19708117695163 -0.25534568719388 -0.18955340052608 -0.2405633133898 -0.16676227398168 -0.093837678028221 0.34938826951563 0.02525501349545 -0.0052704408795962 0.25624381894101 -0.15037002603779 0.27727337161899 -0.18250033061232 -0.11576177913336 -0.19004508983738 -0.046412264881594 -0.21683490802761 -0.053937741991309 -0.10356300471029 0.31041148407117 -0.14201297903758 -0.22688923117927 -0.23610481002365 0.10522763159336 0.22729604115097 -0.15634575693569 -0.27103516711676 -0.22968032338109 -0.25663695854374 -0.2531898497346 -0.24293086280336 -0.11889999221752 0.10232689650623 0.066030419270938 -0.15387138664218 -0.0073581974982303 0.018449519099474 -0.085504530249962 -0.027941196303693 -0.054464051574426 -0.040555071608591 0.26335848510752 -0.13729628116314 -0.20468579669311 -0.1953764283154 -0.30261053089373 -0.26748426658136 -0.31007374488373 -0.3174469624054 0.2346488423062 0.17669138497303 0.2666401880007 0.40938949470134 0.17321378525715 -0.0055586649789666 0.15297930113668 0.35939945491704 0.24493187098219 0.094026713564545 0.13900163447107 0.17923514666049 0.0402315041693 0.085779758236047 0.16262847452873 0.27178481900129 0.3582608531529 0.31752879838334 0.40774358469704 0.3176623499219 0.43214842718466 -0.20971964545287 0.46955619731874 -0.1248952590848 -0.077554551463446 -0.057542689676657 -0.09529971038064 0.081026312771407 0.24157723063521 0.036213530067752 0.34479032318737 0.37360346930206 -0.10684107148677 -0.027886179865976 -0.14087472915378 -0.083277619652343 0.077528220083376 0.1154110703024 -0.10638509355387 -0.066842034333775 0.072843045568086 -0.018992601853345 0.05311717010102 0.047544379673025 -0.024828490637123 0.0037450584100605 -0.029304813103407 0.095095483255026 0.078389056450521 0.033268144812377 -0.16565785511106 0.023057326016425 0.098160406565109 0.21814673156143 0.101167964596 0.20738058484163 -0.19036975232853 -0.24835719103568 -0.074438892936028 -0.051353813864525 -0.25373006370363 -0.26731238615289 -0.20376583774578 -0.12482306756359 -0.23079097422619 -0.27936245472816 -0.2363413602432 -0.26563802876397 -0.30440494885524 -0.28557045795683 -0.1554487282921 -0.25628203506638 -0.30712907385959 -0.3451850642542 -0.26862916208872 -0.28721769815678 -0.34225369869336 -0.33997972775884 -0.17807984499935 -0.13859498015555 -0.20489504001664 -0.13772588456473 -0.11361602813836 -0.043554099616103 -0.01878644328182 -0.20805549845075 -0.17039776156886 -0.43802640860848 -0.28944638609538 -0.31285944817015 -0.059368277667309 -0.011067588900949 0.1366807686057 0.21393349975494 0.36023579726645 0.10215857416336 -0.27326418603088 -0.49451090001276 -0.0069350953926907 0.10241331961851 -0.19987205322173 -0.066543497911247 0.3656024250453 0.45841867555736 0.21048629054653 0.3861278381624 0.21233404845604 0.076176646474985 0.20611791288067 0.28155791444049 0.41245504489306 0.11663525895984 0.14380669502833 -0.067413520179775 0.18913877005021 0.011279128727882 0.31664201311925 -0.06107875149907 0.44975547230118 0.35277673719828 -0.16569079190517 -0.060716244431522 -0.2427484413549 -0.19918368338592 0.039946793921116 -0.046436476456175 0.30440982551495 0.39160764935264 0.18883346257457 0.33837822543133 0.4099993420165 0.40313425434391 0.16130084600281 0.17024506629608 0.2472579231266 0.434791819051 0.091356948069792 0.1161737520284 0.19363226450608 0.38819309140163 0.0099727833270849 0.11967392830149 0.15989158405653 0.44624597128979 0.096403904808774 0.093840719702196 0.16011453611515 0.19422357957845 0.12381072356701 0.020153496071952 0.2341159862718 0.35688833702076 0.18611255113028 0.12765300317435 0.34484986289725 0.26294339882455 0.29404299243879 0.35722570163955 0.40554570846234 0.2339714489707 0.23080138532632 0.31261448601872 0.31156551916957 0.4540862001914 0.35050048200748 0.44180420058729 0.35771375433231 0.29564096593016 0.32189291273882 0.36875602138128 0.41603171768547 0.33175395873474 0.12001010159078 0.24523279993546 0.026005193740265 0.07137480660774 0.1156182913946 -0.12389158615512 0.19691793926964 0.13533783834277 0.019644085117879 -0.022830055087789 0.23854176977147 0.083139998658813 0.32546718891365 0.39700549674966 0.024217836645444 0.086619008361957 0.0034161830688847 0.0064899156204952 0.12933077291874 0.029896810033317 -0.056692763849986 0.024333630069988 0.24994105978155 0.22245342288478 0.48166345498938 0.49170347800906 -0.14043367511578 -0.15519010937739 0.27307615491753 0.16613081119765 0.032686153020122 0.20773753222027 0.25678568066651 0.29748243052644 0.38135893286854 0.32856856491447 0.38502660428933 0.44231376032879 0.25950399312369 0.49674577770238 0.21008624152183 0.28522023245937 0.27505055664902 0.3965327030624 0.45584665260781 0.47040914921065 -0.16848729253472 -0.035541780194715 -0.12859281212615 -0.085369141109913 -0.15644822588497 -0.18526099452625 -0.1397714490922 -0.21471781401628 -0.095488370609798 -0.30718170812163 0.42892322311084 0.40509167337764 0.42391848645718 0.46911276815097 0.44059247620378 0.46469837622451 0.46818157176272 0.4236631259559 0.3869442798049 0.48394730006436 -0.21102423660308 0.41824039417537 0.48438668303021 -0.2829950861036 0.45688726315299 0.46761531234382 0.43340262786441 0.51878789746713 -0.17502866005364 -0.10050356759839 -0.21993898732727 -0.20102381768018 -0.034491489915246 0.11173479151194 0.46031557727159 -0.15171501358626 0.36901375606015 0.42735073826581 0.45334569919872 0.41580352397664 0.45862494451027 0.40363842630509 0.44586134535575 0.51132374828017 0.45655665477119 0.37221261280993 0.47339380392534 0.40311727507624 0.47437472689374 0.43853801618639 0.43221897177568 0.45510606401007 0.10626026034306 -0.10165681636732 0.41371514717818 0.22210807574773 0.048240984094373 -0.097759752836513 -0.27642040163079 0.45880224063385 0.40938389757181 0.12808438006094 0.093757851182773 0.24750243967458 -0.033735064521531 -0.21784992844276 -0.087553107653841 0.30993275325433 -0.31602193732513 -0.033307389445304 -0.25169612399447 -0.21837134889792 -0.18208030501099 -0.2295536584157 0.14268090960606 -0.10752432114042 0.24993433288406 0.3419368270609 0.31204498910128 0.31468540397225 0.43458865092546 0.00057915200152984 0.33985016505567 0.39463367235336 0.45867622403038 0.35619480976369 0.46430263138022 0.40395104609626 0.45137006566353 0.43213486411652 0.45450439480997 0.05646290533054 0.44485953643157 0.54975009330144 -0.013188555005129 0.46923813423838 0.034092955758074 0.15305593807919 0.0089710607075669 0.17816763745939 0.33929722895032 0.39692063470226 0.32305617060363 0.40143679846812 0.26921847736629 0.29864278124866 0.377984080819 0.43522869804346 0.26878165767343 0.18040712334243 0.36447711468772 0.34648435269113 0.45874119829758 0.48458609347872 0.46909596176366 0.40508039737432 0.16586176414773 -0.027977659098063 0.41185374034973 0.41445207185273 0.1395370816385 0.076775546955954 0.48542238853304 0.50161258808568 0.074208522625145 0.020580195080657 0.071922748414007 -0.00018424739972456 -0.063998090910633 0.02185056549881 -0.10705794985106 -0.1045972538379 -0.11790919279989 -0.14137695646222 0.67421892089211 -0.16118049903119 0.41748753629977 -0.059851402104143 0.0051463316102064 -0.26671348153526 0.18056474215086 0.43059797876893 0.45355499312767 -0.18323843532109 0.44318629414706 0.42951115087179 0.38827095047765 0.60250219639999 0.40930769223365 1.36207571697 0.43966851405194 -0.068589548346893 -0.099583457086495 -0.082872095041276 -0.171668215117 -0.22070111500595 -0.15121456586012 -0.24319196796186 -0.21538966068083 0.45630056136406 0.51552739276646 -0.15097502616432 -0.21694274774832 -0.26600988030889 -0.34866642639922 0.45424995352242 0.86848871319294 0.42538316865062 0.44600063576655 0.45965795346112 0.44886921810299 0.5036868039444 0.45987740530712 0.5146657260258 1.6925178159945 -0.22498534421965 -0.26053050686509 -0.1760734396668 -0.22478504195011 0.47396890605522 0.51667431906848 0.4754922386669 0.47864997636313 0.43961467586385 0.46278701008628 0.42355855655607 0.45052394273174 0.48092930967621 0.50202673126837 0.4577639052482 0.42069657372741 -0.25747567657086 -0.30357449595732 -0.23170865970999 -0.24077153490911 -0.30410963415414 -0.45042224927814 -0.20138775331896 -0.31606920010172 0.50230069405815 0.43777570704919 0.47167092147266 0.40975843571959 0.50717226874278 0.39280162479022 0.50448711196449 0.60314947330251 -0.24555393355565 0.35603385192134 0.4801546500083 0.95969811617737 0.55688241133991 0.5176930621881 -0.31066267049952 0.5848781429261 0.47156032225844 0.66971797184218 0.44097423405934 0.42348253608171 1.3392660574108 0.61769991201737 0.43593983688372 0.42584557380037 0.48312260771531 0.55879680892186 -0.20405157466362 -0.25433894466929 -0.22732011277231 -0.2665051762681 -0.059040605434276 -0.29770138243798 0.47221537594935 0.50007390403576 0.43410602289969 0.45372713427485 0.38558772862925 0.42108195232449 0.4930950967331 0.42837844466559 0.46699835329653 0.422603538602 0.34011253766231 0.43886693937376 0.42597039590232 0.46654920675372 0.43660583943671 0.4645257143824 0.44918568046581 -0.30359722477614 1.1490767621093 0.29951351174095 0.42484992654956 0.36002989242915 -0.28317611201301 0.87162195586178 -0.26419146174802 -0.24229331081766 -0.3280708926386 -0.22441222406654 -0.27627690651579 -0.30505137709613 -0.6832947105148 -0.19070452622563 -0.2188723116786 -0.087835882742549 -0.17456224718175 0.24500833088346 -0.20959624653426 0.44899257562162 0.43341461358645 -0.1843642033448 -0.27440491323326 -0.18055059875701 0.4775578030322 -0.11085349994301 0.23482656554508 0.33323516031122 0.44030555186389 0.42922717531325 0.15256526161433 0.11257149081858 0.22470570693941 0.23078251023114 0.50015295165904 1.598121078532 0.52296261881926 0.86444446109034 0.80377481228611 0.77922981480596 -0.14337035862727 -0.24281180238359 0.43650990218589 0.46242070225337 0.74642201975963 0.44454809952162 0.44100041535538 0.40352933605056 0.46851673949511 0.42882465078119 0.48851009824228 0.44178377787715 1.2041783470102 0.42186065767128 0.50054894700216 0.15028931732184 1.03891023617 1.2013301910469 1.6509096384716 0.33855344788411 -0.042185199650636 -0.18085031310541 -0.33240367623962 0.48080465696775 -0.022989616682068 0.3996739495493 0.42896089521258 -0.18875644038824 -0.14238599099801 -0.15649122229282 -0.1159926175472 -0.074109303314544 -0.0084998341207695 0.27410552887045 -0.052611252319589 0.21886281480716 -0.092613581318786 -0.080495540188489 -0.089389104383853 0.45050037973771 0.42892302361141 0.44948851466779 0.43394259753448 0.41857542615654 0.47285301623231 0.67767860556561 0.57400714422596 0.47069474523573 0.43981188588994 0.38501607064232 -0.014807890051583 0.39131269207778 0.40082742558573 -0.60553057668452 -0.63835331840998 -0.62323689731036 -0.63427533018769 -0.6390812189193 -0.62826898078638 -0.62769529581137 -0.64318519081312 -0.64600246704986 -0.64080247937665 -0.59877049216342 -0.66901525517791 -0.63298313825462 -0.56208889117747 -0.60759537437897 -0.53966694054439 -0.62439572227436 -0.60832553334708 -0.64157315100286 -0.64883632948668 -0.65667080923844 -0.66054368007909 -0.65271729878566 -0.54965100265495 -0.64749920438023 -0.62732730519647 -0.63296371252561 -0.66852054390876 -0.63765819286184 -0.58049298822728 -0.57750209330214 -0.57204130099741 -0.50239429747329 -0.4123874224064 -0.410