# vtk DataFile Version 3.0
d-2__ created by libgimli-v1.5.0-1-g5991b6ac
ASCII
DATASET UNSTRUCTURED_GRID
POINTS 3503 double
375.1578521782	-10.539151806402	0
374.30878561874	-11.333149474909	0
375.3080427115	-11.55073527979	0
353.15258822552	-10.422449633894	0
354.18292561154	-11.057857317938	0
354.09071294025	-10.152986335986	0
314.51658123431	-21.368484601131	0
314.96475377565	-20.187401839325	0
314.09486661769	-19.791134994325	0
335.06063641948	-18.727786604686	0
333.91590926067	-19.498034653476	0
334.91220138096	-19.749030751392	0
312.87716728938	-15.00604677148	0
313.69828752852	-15.580536085108	0
313.98359442208	-14.619871526021	0
341.70988577375	-28.660260789144	0
342	-30	0
343	-29.123588643481	0
348.7531633215	-17.546589094766	0
347.86234665953	-16.451218929466	0
347.86425349804	-17.846833147372	0
375.15001567568	-2.6543707282398	0
375.08920457871	-4.3757358784135	0
376.22037756121	-4.0797248193676	0
331.24701524002	-29.00972685821	0
331.5383179196	-27.800276696779	0
330.46657948895	-28.04094051305	0
337.48803825856	-27.051366115864	0
338.32343370468	-27.334799680269	0
338.02796277779	-26.445571565557	0
357.20605079121	-14.709569472276	0
357.85756660241	-13.654967184957	0
356.78162696934	-13.544870688863	0
328.54735744887	-23.256550472402	0
327.77170479073	-22.704596806248	0
327.40759358459	-23.530845980281	0
346.62961148435	-22.534259875623	0
345.7207320123	-21.54193898275	0
345.78582542797	-22.39470673296	0
347.28490189136	-26.096656943139	0
346.55078637646	-26.971375159464	0
347.59285754109	-27.19630273383	0
333.01506724416	-16.343217962281	0
333.95176015367	-16.823038042938	0
334.02850253057	-15.519019049605	0
341.11027567368	-27.864123774538	0
341.93773697254	-27.308539202209	0
348.23976421434	-26.422192246908	0
348.23606287066	-25.506374143487	0
340.7815083627	-22.561631757902	0
339.95527348683	-23.411233939364	0
341.08560404588	-23.767381049592	0
328.20142864825	-19.8594185078	0
327.41468444396	-20.437670481708	0
328.6128679825	-20.679263753271	0
344.63906255701	-27.131301422613	0
344.91507157142	-25.969027191901	0
343.75330397773	-26.247161011632	0
342.60533908547	-26.367001824738	0
341.59001971585	-26.354536308704	0
342.77127924898	-28.039077133929	0
343.87641950859	-28.123595788103	0
342.98714802434	-24.466235767669	0
343.99938007848	-23.757278462125	0
342.82766487631	-23.364445574604	0
343.3902395715	-27.213238459131	0
344	-30	0
344.47000762137	-29.026773541979	0
345.4283684451	-28.527152251101	0
345.03125	-30	0
342.10804674891	-25.516345982921	0
343.09257647957	-25.476143512093	0
340.2340649423	-27.389127803649	0
341	-30	0
345.56872553926	-26.738162001498	0
346.41565706211	-25.356068680999	0
344.65932317038	-24.802127402381	0
341.28276686316	-24.825461740858	0
340.76171399362	-25.767221706505	0
340.5	-28.8771229825	0
340	-30	0
341.86534410235	-23.171226400586	0
342.02816341031	-24.13915449407	0
345.86814224652	-27.661654107097	0
346.75696928487	-27.857963937904	0
339.71109539013	-24.570917083129	0
339	-30	0
339.5	-29.104597936777	0
347.09375	-30	0
348.125	-30	0
347.94100745271	-28.986442887947	0
346.11461824861	-29.104624705985	0
338.99376444428	-23.814330701581	0
339.11289562393	-25.324175349654	0
339.80007322831	-26.056412468667	0
338.16751139807	-28.66810303358	0
346.93840036055	-28.74994701989	0
348.27804492159	-28.013017481755	0
345.67470620743	-24.64403880213	0
338.21670176545	-24.974779378868	0
338.25762748325	-25.727537191637	0
342.51081497097	-22.449493860525	0
341.77753932575	-21.8171669437	0
346.00484330547	-23.221435925561	0
345.08565052908	-23.802012599889	0
343.52096580134	-22.493405775632	0
343.07764533576	-21.050837360621	0
339.03989993998	-20.139486053589	0
338.05817368029	-21.216453195392	0
339.57790204509	-20.912859002522	0
347.59468273575	-24.852640236576	0
339.75341858333	-22.388374595877	0
340.49294446791	-21.137022665224	0
339.32785194185	-27.993107166835	0
339.44621372508	-26.908666170907	0
349.32293879219	-28.919860490172	0
350.1875	-30	0
350.38733685352	-28.953973165014	0
346.67900715046	-24.340483727014	0
349.2451130525	-26.505912038336	0
344.79971102888	-22.731845314405	0
350.48339173151	-25.804360955916	0
349.06582591228	-25.67780995318	0
346.99172996874	-23.389488736344	0
348.23524534544	-24.087130531198	0
348.87668944105	-24.851901763769	0
349.83477727934	-25.067106214402	0
339.00599169901	-21.661504806153	0
338.68805901562	-22.736146736974	0
341.6699128258	-20.396834493094	0
343.00311025676	-20.002223728293	0
337.64588799407	-22.601008203293	0
337.97354771478	-23.599518077485	0
336.5696025807	-22.61171969468	0
344.01022177956	-20.303674235911	0
340.54565406524	-19.914996930877	0
337.10364236907	-24.462448472632	0
336.20853425439	-23.62568946289	0
342.68199931048	-17.840113055478	0
341.22406946366	-18.187754786985	0
342.34580285034	-19.1818012753	0
335.14053768741	-22.674110553206	0
337.12375843727	-21.688997464684	0
336.33717320029	-25.697849369013	0
336.05041231577	-24.691980125629	0
335.82963242213	-22.06026340325	0
334.93358930147	-23.981495255923	0
334.09073184732	-23.178006286527	0
336.33951510241	-21.088377353552	0
334.06417241352	-21.777153276644	0
332.94057652017	-22.995946034449	0
336	-30	0
338	-30	0
337	-29.19774860681	0
348.74329295316	-23.420805856725	0
348.6792793684	-22.585339995972	0
347.95812535801	-23.128209221327	0
350.3501812348	-24.197671888416	0
349.45939240383	-27.707232445869	0
351.734375	-29.144248289179	0
352.84882294577	-27.889530040813	0
351.21875	-28.288496578358	0
351.34132639573	-24.395632880694	0
351.20928807154	-27.311279310884	0
351.88182217129	-26.602236998598	0
349.21517795501	-16.794133156697	0
350.32058079816	-17.10394245671	0
350.10490030143	-16.258997873637	0
345.48526666967	-19.459093843261	0
345.58821240599	-18.247993180035	0
344.35288139517	-19.158887816403	0
346.65649586073	-19.484436504778	0
346.25126390996	-20.541681308597	0
347.61936264003	-20.459777442039	0
338.81243336677	-26.237938671526	0
337.25429811215	-26.200727719844	0
337.48612896069	-25.391990373751	0
344.3789271865	-21.440339481862	0
347.84391578498	-19.275149678956	0
347.09871655868	-18.52029622732	0
337.60176175697	-27.926173010404	0
336.67505358025	-27.817799716283	0
347.86829711434	-22.189009469588	0
348.66449579864	-21.682814900134	0
347.05594685479	-21.709163303783	0
345.11942480936	-20.572008845279	0
349.70082943376	-23.423140079513	0
335.314284051	-25.479440285085	0
334.5	-28.976922582051	0
334.33986495096	-27.849516635116	0
333.34910807472	-27.740283311285	0
336.53572602175	-26.855611412651	0
335.54331808192	-26.911276082219	0
335.81738102898	-28.747995168995	0
333.93056661948	-24.189841038622	0
334.26590313415	-25.217182746704	0
335.33231591928	-27.881566878836	0
343.34799546399	-19.052385492896	0
347.86639712078	-21.306749084285	0
332.44066622941	-25.866570505767	0
331.52450997757	-25.650873015122	0
331.75543805194	-26.723521764444	0
332.96839617983	-23.980280207154	0
331.88423136108	-24.781121204831	0
333.22370725625	-24.931334333518	0
334.54274587168	-26.337090073084	0
348.37824841791	-19.954693469505	0
348.97717262232	-19.284064923524	0
343.87964211248	-16.305048663342	0
344.02122269338	-17.494228580989	0
344.5770577457	-16.833546828862	0
335.36702793844	-21.261729140618	0
334.35728045579	-20.613703982693	0
332.76716750013	-20.831752502658	0
331.97935942445	-22.7427623764	0
331.37603452391	-23.532723979393	0
330.45030150643	-23.147364895966	0
329.85375531869	-23.953352419898	0
329.62823670155	-24.971853382768	0
330.72649853393	-24.524773576581	0
333.28642636179	-26.745495841665	0
334	-30	0
332.89841818658	-28.629333215161	0
333	-30	0
335	-30	0
351.1273795905	-22.886616896716	0
349.71557672976	-13.62730617622	0
349.79927624224	-15.266743088145	0
350.74835931206	-13.720487022207	0
348.5970701767	-20.790999731451	0
344.3667220018	-18.290761620276	0
343.49995917222	-18.193526018748	0
339.89448278604	-18.879573750623	0
341.31155237406	-19.218968735785	0
344.92337033645	-17.624445414311	0
336.05068363238	-18.436618124115	0
335.86757826531	-19.371073030239	0
336.74969929197	-19.083232889388	0
331.77701714214	-20.558836602387	0
332.59541827209	-19.522254411682	0
331.6194112034	-19.298349428515	0
337.5749989037	-20.287490296183	0
337.55751687101	-18.626702264589	0
337.34493491814	-17.714790994284	0
329.46044245548	-22.987170320251	0
328.98001713547	-24.018429056599	0
330.77827746474	-26.224462347356	0
343.0048142347	-16.324415146777	0
336.62798969546	-20.003111265311	0
335.69751075461	-20.337636024226	0
332.70858064783	-21.925490941256	0
331.53111948511	-21.855563849241	0
329.84415997071	-25.927850793118	0
328.95499476284	-21.890591080509	0
328.62855296423	-24.954454290973	0
332.51290758714	-27.293603906812	0
330.15948975148	-21.806002538944	0
330.045090233	-26.914273864359	0
329.14845038392	-27.891882928412	0
330.87360921817	-21.047441701583	0
349.92047092515	-22.113625364204	0
350.84628384118	-15.532137452466	0
351.40174782903	-16.840228582855	0
346.91459909339	-17.475678412379	0
345.43954356407	-16.873185144727	0
341.9604159402	-16.112852819254	0
342.40979727961	-15.146631919165	0
343.76785714286	-14.975595238095	0
343.22758013134	-14.111040438175	0
336.09704691682	-15.119919281858	0
337.27778470988	-15.464703559456	0
336.71577863016	-14.370552244331	0
329.10049411687	-26.566219812261	0
330	-30	0
332	-30	0
329.50754699687	-20.476833484984	0
330.91122877749	-20.006304858785	0
329.51848443013	-19.265692592857	0
327.66598256562	-19.008729177056	0
326.46803021755	-20.198531267227	0
348.70195976579	-18.428079682461	0
346.71599330899	-16.341324629915	0
344.64764407248	-15.885677865779	0
344.98160547133	-14.682542506669	0
349.63137339717	-17.638210725982	0
348.78697584748	-15.643448532263	0
339.37208021104	-18.143939206744	0
338.6395644571	-19.049087909466	0
344.16260929477	-13.950514570436	0
335.32141449427	-15.70538852538	0
340.06553628742	-11.539787515711	0
340.81850540584	-12.101186450115	0
340.38375806882	-10.656121201605	0
333.90555425581	-18.246885988841	0
334.82969977222	-17.403419764475	0
336.42152784049	-17.559573016758	0
[...]
CELL_DATA 6713
SCALARS Coverage double 1
LOOKUP_TABLE default
0.20133091222028 0.25003113077587 -0.40391030199846 -0.32398158535268 -0.16601465457054 -0.62619734011958 -0.23797707617764 0.55252752772423 -0.6411606327139 -0.5664593620043 -0.06960569890218 -0.47202678029514 -0.37664378342692 -0.54187450047129 -0.22338479360291 -0.58697364979262 -0.5193522386487 -0.42392277185044 -0.36680118836262 -0.5333015662291 -0.54612283641021 -0.59973759751627 -0.44353237630005 -0.57176597897022 -0.62826290878817 -0.60330733011735 -0.54381943997472 -0.60322694710832 -0.63493267238435 -0.62245266622124 -0.54906227718346 -0.48544721627761 -0.56445639446557 -0.63414453194783 -0.57551326178175 -0.5848979488407 -0.57002163533543 -0.5408285263282 -0.57846791773348 -0.51942746903403 -0.48063349445176 -0.51554768150159 -0.4981709938927 -0.64143317043359 -0.50183162442879 -0.52023734517116 -0.43575382430752 -0.5794207554267 -0.55540549510678 -0.56542542927403 -0.51428453223719 -0.54172893115687 -0.47969677141571 -0.52054642912105 -0.49572766818456 -0.64735291466807 -0.60297309617798 -0.6293039096609 -0.6377354048065 -0.63911488570128 -0.50062193325558 -0.59449791398211 -0.53517293059661 -0.43837129589941 -0.45849831720614 -0.5587027529966 -0.59607880467785 -0.50504405152675 -0.63916793717014 -0.59513153280028 -0.48996890759228 -0.47690257349892 -0.46621942457138 -0.44502831313054 -0.46339883137904 -0.42298691722327 -0.51400650077977 -0.45566474739875 -0.39603798377127 -0.44196714808038 -0.41464993512929 -0.37112967805755 -0.34565919882767 -0.40914522710703 -0.39708683386393 -0.40584973717154 -0.3711446599421 -0.48603350702293 -0.45483321326406 -0.49965527554026 -0.37293189525418 -0.59741651039234 -0.57886590374676 -0.50608885238461 -0.55299722930285 -0.52467675430572 -0.60216186754291 -0.55674069709088 -0.56618688166688 -0.59715881500502 -0.60628268082994 -0.63731241545203 -0.5231889591439 -0.57311806079132 -0.60864852840619 -0.47475435422405 -0.55821151823628 -0.42209184665534 -0.52622325166009 -0.44383547517688 -0.54131019176041 -0.5268348199313 -0.56107574531422 -0.51835486722747 -0.49712380193293 -0.49868237689603 -0.41390881265499 -0.45299700100182 -0.41593520741001 -0.39572049305813 -0.38127692280308 -0.32524469101426 -0.4349463747829 -0.43628849743599 -0.37705508054352 -0.43629111673906 -0.41784283983857 -0.47622955201224 -0.32319608844809 -0.33072581477324 -0.39751568472743 -0.43799592811387 -0.4746979631782 -0.48079204223048 -0.26473747298243 -0.44640490139285 -0.39138497337771 -0.40980638495455 -0.44628193753844 -0.51301766684718 -0.33259802981761 -0.42139244235849 -0.46142004013461 -0.39337410548143 -0.43883982057953 -0.65578726586207 -0.41579443667636 -0.48913749155521 -0.49087861564475 -0.500606569678 -0.56680372376393 -0.62178474537166 -0.49132787238144 -0.50293577819267 -0.55645433848918 -0.47960802656739 -0.21976395858895 -0.27742418292562 -0.31412941246806 -0.43717990844133 -0.52501724715466 -0.4825485937334 -0.54648711304097 -0.54518458396417 -0.55869358292478 -0.57812522452902 -0.5425859904126 -0.64316457413655 -0.48551207892135 -0.53200754836097 -0.41008323715315 -0.37864489201533 -0.45533503115933 -0.41943203142588 -0.49072327075711 -0.47590954378176 -0.46665929400436 -0.44335975005163 -0.2849631629702 -0.36671854308959 -0.48490556411029 -0.60153832592187 -0.5990997702363 -0.5904475900264 -0.40114322395028 -0.33541669680184 -0.46435227134859 -0.40045256263203 -0.38457727591197 -0.37467933065636 -0.41437397672784 -0.37647438979486 -0.30471695389079 -0.34781051787529 -0.37709500992497 -0.39963702966111 -0.45326787224593 -0.43323062081935 -0.50885834737777 -0.62821154083664 -0.61627006158873 -0.64645382901604 -0.61522738737671 -0.55834607760561 -0.58425426222648 -0.62061213912886 -0.62419812708237 -0.33497009989637 -0.30736017619887 -0.45926193816782 -0.52059165518063 -0.43518381413751 -0.4772705898852 -0.5529066925628 -0.53447868445628 -0.50755937298225 -0.6492216276014 -0.58653236701236 -0.6178609323731 -0.56024043534792 -0.56315731012534 -0.53968426795637 -0.55962213722419 -0.52700539562845 -0.51619750084433 -0.50603483818355 -0.51114607154213 -0.55321696609443 -0.58480670712044 -0.59461669945027 -0.51048443470985 -0.34295411344757 -0.2983290915899 -0.36955892428935 -0.36879053749792 -0.56869690509741 -0.5116042124703 -0.33946278524485 -0.58689693419123 -0.31249154543671 -0.34725606676649 -0.34342996825114 -0.30078133889178 -0.21881811368733 -0.29233133869138 -0.26804769408225 -0.41119305747969 -0.48047900508495 -0.38627852290222 -0.38828374165832 -0.50816890315487 -0.55676964649669 -0.47312973716606 -0.51368350517678 -0.4720225989726 -0.50204072362381 -0.46691419764048 -0.51846617809692 -0.49974317068604 -0.55318270973098 -0.55031087046682 -0.54524864173015 -0.53913880501941 -0.62621728463699 -0.55521813271689 -0.58811132231602 -0.6682325217182 -0.65758607474674 -0.44200409475172 -0.089404192548623 -0.3058461708522 -0.32517763558107 -0.29413396634343 -0.30310568588645 -0.27222132640307 -0.26392750958014 -0.27622579982725 -0.35018550782182 -0.27637145873228 -0.23317526856498 -0.30678802323899 -0.35066496965248 -0.37266512142691 -0.28650636590589 -0.48384157603814 -0.51597675557024 -0.54629994709138 -0.54213258401765 -0.34179063421946 -0.66011039882593 -0.27158966083398 -0.22978470757481 -0.34865213145997 -0.32416298010373 -0.29481512283124 -0.35095809822343 -0.43320521738442 -0.49361421910765 -0.54551250361832 -0.45184925932013 -0.5205370653756 -0.54778688490805 -0.60353048572434 -0.49197722865933 -0.48395844971429 -0.46990259176197 -0.44351929645903 -0.44158701325049 -0.61845279827943 -0.40200784800164 -0.44727554479052 -0.39769649451071 -0.40904577338787 -0.6667779936576 -0.62789301156942 -0.6541469476716 -0.60164885564051 -0.58029962458231 -0.4122161084598 -0.2023414704512 -0.25425086371817 -0.24047149702013 -0.30182408638947 -0.30355931795687 -0.18726217330252 -0.13132756489419 -0.33849031070642 -0.15594935767572 -0.53450530388359 -0.56885492344088 -0.59505178714302 -0.59911544826438 -0.56918263617772 -0.67852869685742 -0.3562321594832 -0.36014900214905 -0.35553156394963 -0.40018559972486 -0.39781064529715 -0.34940918079419 -0.27187756862054 -0.25663847945579 -0.28427683771751 -0.2364729669579 -0.22209134033505 -0.25340027753467 -0.15150368897611 -0.25403862638639 -0.20391996826014 -0.21772056644088 -0.31505811974321 -0.34936106451643 -0.37031196172401 -0.30735883181149 -0.36939073458185 -0.35472352945147 -0.39522971664008 -0.36516773665932 -0.27950250085716 -0.33680099979493 -0.35823876951236 -0.3176906369231 -0.11604525458466 -0.21187156629025 -0.3269718785257 -0.28959936978781 0.16009706784363 -0.31134896005398 -0.27453181480382 -0.32105303219132 -0.25050290692587 -0.27639671084789 -0.28768554187051 -0.28791175819146 -0.39559651833232 -0.3738969179905 -0.35350536686172 -0.37678748111508 -0.34036077876366 -0.33848840168197 -0.3106676380434 -0.32157758708723 -0.40287632240386 -0.43090752722183 -0.14783557907491 -0.033081559414459 -0.19124488258671 -0.17410190499226 -0.26902158978711 -0.31599815291091 -0.30370651029396 -0.35263782300598 -0.29126027336217 -0.25852487679633 -0.31877162151446 -0.31993582871366 -0.25579130684525 -0.35108217628025 -0.38835155847541 -0.42839055763697 -0.17849394996937 -0.12763023774395 -0.17705074439179 -0.19948723126099 -0.13061140828105 -0.13747697687531 -0.19138558338052 -0.22533960594764 -0.24781417703805 -0.30326480040566 -0.32401786503685 -0.28967635149762 -0.26881870210079 -0.25193921662163 -0.24142320199878 -0.21659730225525 -0.16129965954515 -0.23401889082316 -0.049481226326497 -0.20174660029654 -0.17848219488148 -0.28367989453851 -0.41323803101447 -0.30900634756228 -0.30947810979777 -0.32917717707256 -0.17592055791241 0.16962571090303 -0.16162908535984 -0.18692345740489 -0.24545693360866 -0.24044652651455 -0.2087678879762 -0.20141903866725 -0.25079964527332 -0.26711858642922 -0.17868199556563 -0.21304425619214 -0.24598016187106 -0.26006591145991 -0.27880475058031 -0.25935251445916 -0.15373586017541 -0.26974125399467 -0.24477437421861 -0.26681002806716 -0.16149004642643 -0.18825941142738 -0.2928085649537 -0.28451805757157 -0.30787879770111 -0.33354352876563 -0.25155962157168 -0.28338234482823 -0.098936493064406 0.020723887151042 -0.20012710791906 -0.1347993479986 -0.26411401006369 -0.23405303711566 0.015832805097936 0.18576164975862 -0.3857793563369 -0.29504401041931 -0.30270676487878 0.19651695325456 -0.064662076505267 -0.081282184307593 -0.19569306636152 -0.015302075444723 -0.2905297346983 -0.31815291563121 -0.25230046554508 -0.35440319499452 -0.22422934225375 -0.23325980614412 -0.13741882965849 -0.11085154645469 -0.12758879376725 -0.064410868136596 -0.092083809883096 -0.029741101264425 -0.16977979216893 -0.067449780316332 -0.084941445443961 -0.12417234035872 -0.21977382507545 -0.19711415902095 -0.25537645656642 -0.18960014591375 -0.24059571592354 -0.16672711975368 -0.093901876022205 0.34948932464637 0.025224379420996 -0.0053064298866664 0.25627892530663 -0.15039986690745 0.27732675202641 -0.18250642934551 -0.11578558643449 -0.19008199399586 -0.046421304898681 -0.21686604250252 -0.053976352850484 -0.10358085014125 0.31048962040422 -0.14206959014992 -0.2268930383182 -0.236110536118 0.10521989526475 0.22731635998283 -0.15633505706771 -0.271035861398 -0.22969827993935 -0.2566515906303 -0.25317379690009 -0.24287070407007 -0.1189133618614 0.10231733465089 0.066020932760201 -0.15388991277311 -0.007396183540294 0.018405883895345 -0.085520471204979 -0.02801423650362 -0.054495725513161 -0.040582376848111 0.26341131289812 -0.13733886964669 -0.20469814457913 -0.19537453242251 -0.30264242181833 -0.267497192016 -0.31011676518685 -0.31748188836638 0.23467526821969 0.17669667384751 0.26668961273776 0.40951429416986 0.1732184146166 -0.0055717128238001 0.15296986604962 0.35950582649384 0.24496433825417 0.094015178088403 0.13897900407119 0.17921654791183 0.040193650068144 0.085742693564163 0.1626074791565 0.27182564097054 0.35835871234036 0.3175697667261 0.40785331060964 0.31771841660996 0.43219206565587 -0.20971138462051 0.46959161419822 -0.124889231027 -0.077559809669522 -0.057566014066959 -0.095358444585853 0.080942770938571 0.24154157277888 0.036191144915219 0.34487319403383 0.37371074199297 -0.10686810208528 -0.027910181083928 -0.14089495799968 -0.083321577672285 0.077498579694408 0.11538640886667 -0.10643413409653 -0.066899797532044 0.072772706133592 -0.019032628513311 0.053077817413063 0.047507986407535 -0.024887801803623 0.0036917496144116 -0.029377501065805 0.095033932740822 0.078292755949764 0.033209285020365 -0.16564903722427 0.022983288856815 0.098067627148226 0.21808924826997 0.10110543045684 0.20732866403775 -0.19035384463372 -0.24834785141818 -0.074423439976834 -0.0513425320875 -0.25373582207031 -0.26730700389558 -0.20374829781358 -0.12480707516763 -0.23078866922243 -0.27937935894355 -0.2363344241059 -0.26563050728481 -0.30442972859611 -0.28559033995541 -0.15543418847501 -0.25626788824802 -0.30714673216915 -0.34521918575569 -0.26863969191742 -0.28722284692426 -0.34230482674995 -0.34002133375867 -0.17807387055152 -0.13858659868505 -0.20490054368103 -0.13773750259028 -0.11361661601113 -0.043557592232011 -0.018780835198401 -0.20803183800935 -0.17036266803376 -0.43809273987414 -0.28945070624937 -0.31287249391028 -0.059375089096541 -0.011079264059681 0.13666796102839 0.21394444591298 0.36027086555257 0.10213669961936 -0.27324719298726 -0.49457973312519 -0.0069309483209877 0.1024055711966 -0.19987966313987 -0.066580590501594 0.36570334486068 0.45844255927363 0.21042164477443 0.38623000466188 0.21232455623035 0.076141819308812 0.20604768360993 0.28156573270512 0.41247483470013 0.1165554933605 0.14379400553942 -0.067418564845714 0.18913014760956 0.011271405270065 0.31665814368335 -0.061065688984453 0.44980254121316 0.35280527412701 -0.16572818342572 -0.060781304666466 -0.24274386418167 -0.19914567181879 0.039907809604226 -0.046489864711867 0.30449371251808 0.39170064912483 0.18880585731169 0.33847437935998 0.41007201521827 0.40321655714853 0.16126590483718 0.17021397004367 0.24727231756902 0.43488816068003 0.091322112917234 0.11613823647196 0.19356153074098 0.38826564537109 0.0099023644909018 0.1195835457318 0.15988096754492 0.44621089945867 0.096377320008178 0.093780284550921 0.16007272680229 0.19419868965447 0.12373799387975 0.020081944600317 0.23405107409216 0.35696300191522 0.18607713087438 0.12757179943101 0.34484648321196 0.26289140122939 0.29399299118495 0.3572378379279 0.4056889204863 0.23394577039345 0.23078650164816 0.3126708330153 0.31157661029611 0.45415295650086 0.35055105756371 0.44188023978763 0.35776126187508 0.2956848769632 0.32187812188813 0.36885626111598 0.41601577496293 0.33176317049342 0.11994595626772 0.24517184785762 0.025991384674256 0.07136495692011 0.11561367983706 -0.12389509890849 0.19691830549586 0.13532281463883 0.019629592317108 -0.022835692499845 0.23854540992042 0.083133376701114 0.32549300313081 0.39704985865203 0.024203952237028 0.086601781075711 0.0034164127220681 0.0064899253992264 0.12932000075838 0.02988923147421 -0.056682286985227 0.02433205208503 0.24993413828323 0.22244199961312 0.48167567454289 0.49172694135934 -0.14045609506274 -0.15518680338877 0.27309966214315 0.1661006656997 0.032629890214825 0.20767485401358 0.25678295600326 0.29751054388474 0.38140824026534 0.32857097327523 0.3850712869777 0.44243094886956 0.25950996961413 0.49676765872514 0.21007725954494 0.2852591503842 0.27502081687811 0.39662320606535 0.45581008454805 0.47045448830195 -0.16847953740838 -0.03558079377996 -0.12857105923721 -0.085350917721218 -0.15642558366205 -0.18524366798838 -0.13974586866026 -0.21470185776253 -0.095469493673523 -0.30717815108259 0.42895641713736 0.40511825231157 0.42397621933064 0.46907205255281 0.44065246706084 0.46471242386608 0.46810120290235 0.42367663841521 0.38701906410065 0.48396333237029 -0.21099225019974 0.41823525030244 0.4844035083777 -0.28297474260329 0.45690895873875 0.46757675441855 0.43344289740333 0.51873050536649 -0.17502484428649 -0.10052885581084 -0.2199163712728 -0.20099754134974 -0.034556688853179 0.11169957292702 0.46027676195584 -0.15167965202874 0.36904729245398 0.42743763939713 0.45331713761957 0.41587955532848 0.45868733163505 0.40374724950784 0.4459004279157 0.51135942492108 0.45646921106623 0.37230360502679 0.47333177344966 0.40307365001084 0.47434172764161 0.43857587326821 0.43225201173228 0.4550365725237 0.10623868343596 -0.1016428975463 0.413635445427 0.22209889201802 0.048229204728591 -0.097744085724327 -0.27639357575246 0.45873182207565 0.4094596883278 0.12806224439585 0.093681178293033 0.24746878044288 -0.033818796116079 -0.21779422553995 -0.087564224485062 0.30992085186395 -0.31597120521377 -0.033383236869656 -0.25163897522993 -0.21835939486893 -0.18204893601673 -0.22952271072826 0.14265743253381 -0.10750498715816 0.24993896154302 0.34197024023632 0.31206295294795 0.31470877265017 0.43461390526731 0.00055679301510628 0.33986570095058 0.39467709938509 0.45871555248013 0.3562245181255 0.46425704875674 0.4039831622384 0.4513231160178 0.43208077086603 0.45444523614469 0.056447562800048 0.4448098625823 0.54978652943303 -0.013186487470852 0.46916621835818 0.034008763908786 0.15301683905951 0.0088705760370212 0.17810544057823 0.3392970226998 0.39697212882258 0.32304760742105 0.40150309604729 0.26916650487029 0.29859217776858 0.37801555437003 0.43527023343853 0.26877307008251 0.18034670942171 0.36453330030762 0.34650066620518 0.45882816314762 0.48448131036831 0.46908972653597 0.40509415156782 0.16581501603593 -0.028050080161763 0.41197402035222 0.41454095107457 0.13946280315155 0.076690089133197 0.48553239902014 0.50155123058713 0.074108350063436 0.020481626514911 0.071812917857759 -0.00026876791422895 -0.064040292471398 0.021752830527636 -0.10706664322806 -0.1046080479683 -0.11790343789155 -0.14136554348522 0.67420163158373 -0.16115724788045 0.41739179617196 -0.059848717696183 0.0051331503045781 -0.26669326757962 0.18054229849535 0.43060458945277 0.45354017509582 -0.18322576524213 0.44311796762617 0.4294444927782 0.38818852046505 0.60252545418996 0.40928834831726 1.3620593208669 0.43953252793171 -0.068608383429844 -0.099579434438057 -0.082878022874305 -0.17165745506123 -0.22066057470197 -0.1511911055823 -0.24310796335506 -0.21533237002011 0.45620551599228 0.51548955159174 -0.15094711160129 -0.21690521191524 -0.26597879462663 -0.34870124182241 0.45421680361024 0.86848428945712 0.42531799989908 0.44595142528592 0.45954093492905 0.44887966981204 0.50360233938749 0.45989355653511 0.51464135915988 1.6924444055268 -0.22494992329087 -0.26045019634165 -0.17603879128111 -0.22471819138354 0.47405954321385 0.51663357762481 0.47553000348514 0.47858804225616 0.43971353289852 0.46266996405718 0.42363237286026 0.45057284515953 0.48091679350178 0.50195807175512 0.45779809300789 0.42076723771495 -0.25744327925661 -0.30355655890151 -0.23167064102899 -0.2407291006187 -0.30409416795436 -0.45048574002686 -0.20135554716859 -0.31606380847202 0.50224241954143 0.43774290113007 0.47163264112596 0.4097483543051 0.50715525828093 0.39274341927818 0.50449920104461 0.60313193273503 -0.24551968388048 0.35606704612205 0.48017970044637 0.95974305426702 0.5569003520153 0.51768274598232 -0.31065909811823 0.58484979813403 0.47154388822593 0.66975277068021 0.4409268916011 0.42347015645242 1.3392891658713 0.61771388883961 0.43591353934506 0.4258133504373 0.48306970810027 0.55874881501959 -0.20403667381252 -0.25434631033822 -0.22729427865441 -0.26648679628675 -0.059057399537769 -0.29768490975192 0.47218171372205 0.50001000722438 0.43407038962127 0.45377120743227 0.38554300320801 0.42098575986084 0.49307725247195 0.42837810143227 0.46694462761918 0.42255577330389 0.34012491367073 0.43881721465477 0.42594467186032 0.46657478562832 0.43658203625253 0.46445495658255 0.4491489313926 -0.30355239333577 1.1491222790517 0.29951797939365 0.42479505323455 0.36006305430503 -0.28318115682894 0.87159963401588 -0.26414191197294 -0.24227023220487 -0.32806039391735 -0.22439244884594 -0.27625916718775 -0.30503617963108 -0.6833558623395 -0.19067180057389 -0.21885804090151 -0.087849371303496 -0.17455041244109 0.24500410414479 -0.20958374721403 0.4489819806578 0.43335095873815 -0.18435410926886 -0.27439283389817 -0.18055057784185 0.47752944353214 -0.11087301254382 0.2348264576496 0.33325941030312 0.44032202926753 0.42925255788106 0.15254961377766 0.1125498898652 0.22468919737138 0.23078449628135 0.50013264528675 1.5981135902317 0.5229239950432 0.86439926635505 0.8037514717533 0.77926776713429 -0.14338021638619 -0.24280162604387 0.43647977349878 0.46240105770524 0.74645324831155 0.44449472122878 0.44100603404519 0.40354907036623 0.46848106009664 0.42879701877297 0.48856025195798 0.44178313333753 1.2040989751166 0.42178671988984 0.50053761784844 0.15023835304644 1.0388799163985 1.2013628267039 1.6508685658038 0.33857919295787 -0.042238514937105 -0.18086381712877 -0.33238765318255 0.48080739898533 -0.02304395885397 0.39964367254026 0.42893863188566 -0.18874289841924 -0.1423916086531 -0.15648614707051 -0.11600566227718 -0.074125374352665 -0.0085491172518447 0.27410771918341 -0.052653640588793 0.21883021642564 -0.09266257354352 -0.080540437940425 -0.089421905441247 0.45048074917722 0.42895587457291 0.44947460802682 0.43390902982026 0.41858147695089 0.47285466452891 0.67769707350343 0.57400869642241 0.47068245490323 0.4398241217645 0.38506516622002 -0.014856822607865 0.39134070977963 0.4008581696786 -0.60545615536449 -0.63828974631922 -0.62316279205172 -0.63417956634989 -0.63901151566768 -0.62820274021504 -0.627647628167 -0.64312207751735 -0.64595223013552 -0.64074555640576 -0.59871051838648 -0.66901013952057 -0.63291927785307 -0.56204458352003 -0.60753845827954 -0.53962255655681 -0.6243604322701 -0.60828225142328 -0.64156371386226 -0.64877837479559 -0.65662085701766 -0.66054223613548 -0.65270486411982 -0.54963101357914 -0.64749627927579 -0.62730667903351 -0.63295555573312 -0.66851187872466 -0.63766055772824 -0.58044468841704 -0.57747854118348 -0.57204208324938 -0.50238981998193 -0.41