# vtk DataFile Version 3.0
d-2__ created by libgimli-v1.5.0-1-g5991b6ac
ASCII
DATASET UNSTRUCTURED_GRID
POINTS 5237 double
51.5625	-1.600651465798	0
52.363058618394	-2.2007793057832	0
52.363058618394	-1.2002556799702	0
71.425394217268	-6.4492914291386	0
71.135097904744	-5.4771271911802	0
70.857211012989	-6.0895310876045	0
52.36462373976	-7.3812071130104	0
52.062146671723	-6.562044385894	0
51.579239484435	-6.9995115253068	0
52.978608245119	-2.5223992616451	0
52.426078464355	-2.9431742375399	0
53.125	-3.2013029315961	0
58.212085682206	-9.1100319221725	0
58.453260354822	-8.3442770860191	0
57.67084439445	-8.1643577797761	0
63.928817694237	-5.8320133661214	0
63.136568684966	-5.3881026026313	0
62.763781324443	-6.2161997240281	0
73.23666673551	-8.8137981813336	0
72.465325161432	-9.3856020353627	0
73.536499380951	-9.8365705673558	0
34.984095856152	-2.628843419918	0
35.619136094519	-2.5090501132551	0
35.380029414153	-1.8597528656397	0
53.321148630175	-11.162616580636	0
54.027575466965	-10.581569113398	0
53.114509273726	-10.527115815206	0
76.943180869818	-2.9998432215406	0
76.323125752567	-2.5886266629824	0
76.569248516704	-3.6430710208123	0
51.762203973554	-2.6049547878523	0
52.713475367973	-6.5806932207651	0
53.163617236788	-1.600651465798	0
55.987476949302	-0.99080140091504	0
55.102793289422	-0.76710012556177	0
55.106970838159	-1.6393923168386	0
53.596292205608	-2.16693697809	0
50.985999511328	-0.80032573289902	0
50.694945464071	-1.6177802013362	0
51.5625	0	0
51.953125	-0.60656716833924	0
52.34375	0	0
51.141033728919	-2.2327563841605	0
53.163617236788	-0.79985989414244	0
53.856712638952	-0.69868682303251	0
53.125	0	0
54.6875	0	0
53.90625	0	0
54.345635852319	-1.2002556799702	0
54.27340867437	-1.9180427530569	0
50	0	0
50.061543575147	-0.9317159149912	0
50.78125	0	0
26.835711480797	-5.0945728207933	0
26.730759507059	-5.840020163328	0
27.652791899251	-5.7989062126192	0
50.800784553772	-4.441346771854	0
51.530120250591	-4.5184826244551	0
51.200767107424	-3.8631910820893	0
50.524574742154	-2.6202884258794	0
49.013345914832	-3.0309080337401	0
49.307829314199	-2.3683039790327	0
48.457760708485	-2.387246226841	0
49.990868918556	-2.1249492899538	0
51.150445706534	-2.9924285898874	0
52.406542536007	-4.5731399715169	0
52.067234067036	-3.7632182402079	0
52.451757838435	-8.0675828340887	0
53.06848754724	-7.8770210901599	0
48.895608461697	-3.6984004848738	0
49.066411935567	-4.38252714814	0
49.595903323883	-3.7808033008045	0
49.689570829885	-2.9847762176767	0
44.897973912051	-1.9946180437754	0
45.182046705136	-2.7949873194544	0
45.762828029322	-2.1753250060135	0
50.373551971126	-3.5866505254035	0
52.828771262488	-3.9202157613411	0
53.812795204979	-3.2326334333091	0
53.849159978958	-3.9201808480695	0
53.338980160241	-4.3451358512942	0
50.125262346554	-4.2466167218164	0
48.366249439027	-3.2325870638619	0
54.140475802653	-2.6271012126648	0
54.777278080618	-2.8548682726708	0
55.343969328911	-2.4857395634732	0
54.900639642445	-3.5198321062056	0
56.08245822117	-2.506515700293	0
56.722434969274	-2.3362664933289	0
56.582649783275	-1.6825215295472	0
55.838086387121	-1.8910179851795	0
47.856418863637	-3.6536845491278	0
50.296065820424	-4.9307433850826	0
49.648878212346	-5.8674099255378	0
50.435444238179	-5.7189662551714	0
55.726447146829	-3.2617900974963	0
57.03125	0	0
56.25	0	0
56.640625	-0.6336799182968	0
55.46875	0	0
47.265625	-0.60584322854327	0
48.319897427419	-0.94328166326908	0
47.65625	0	0
49.649019377522	-4.7289038921194	0
47.800117245319	-2.7436775267687	0
47.056439225426	-2.6631716329468	0
47.205202788673	-3.5389329417022	0
51.025062137871	-5.1776046674784	0
51.794314349774	-5.2026477919161	0
49.379793031142	-1.4900458490219	0
47.883963066822	-4.3143596769856	0
46.626719423074	-4.21305864466	0
46.952796904766	-4.8924187428279	0
48.916367075115	-5.2980660748545	0
48.273036419341	-1.6763193094756	0
47.557375323169	-1.5108824929603	0
47.025995274484	-1.9649058382431	0
40.527819720887	-1.3223996832032	0
41.015625	-0.82403177846155	0
40.234375	-0.68977439554083	0
51.769495715842	-7.9525942359046	0
50.954578848664	-7.8238654176422	0
48.815091053827	-7.8610976914158	0
49.519719147422	-7.882560495899	0
48.604749109458	-7.1882547166448	0
48.451929269365	-4.7518861316538	0
52.107745992154	-5.9120462692989	0
46.467098649604	-3.0446751673047	0
46.438305114222	-2.3432208256986	0
51.000018184443	-6.7905718889417	0
50.272808590028	-7.0153310124781	0
49.192260967628	-0.56566742220875	0
48.4375	0	0
51.389658682796	-5.8053763020697	0
42.171965596079	-2.9039472483478	0
42.169617438148	-1.7439442245713	0
41.762109405592	-2.3247730189075	0
52.98883050875	-4.9231952591911	0
53.664668615825	-4.923752505126	0
49.446075714958	-6.7363461484348	0
50.229139509117	-6.3514683816516	0
37.057737056071	-2.4312750743487	0
36.175296485211	-2.0974136957924	0
36.655257764787	-3.1134808628881	0
41.278857503526	-1.8052612441822	0
41.921261232985	-0.93098632976564	0
56.54470739826	-2.9807316098375	0
58.264619513046	-3.8212235845847	0
58.623591609595	-2.8021267032936	0
57.932380891675	-3.1314225292069	0
57.8125	0	0
57.421875	-0.67803467169774	0
58.459974830411	-0.82455858423025	0
46.66496660318	-1.0043948544666	0
45.913013343028	-0.95437338010054	0
46.258427518177	-1.6241680508448	0
52.805617877792	-5.5737262648744	0
53.54011987911	-5.6518178126013	0
54.483335233213	-4.555508101085	0
54.398072603917	-5.4600916162612	0
40.409708468817	-2.0096945914784	0
39.537349141833	-2.083451253784	0
40.051705231956	-2.9712071561975	0
48.727652221115	-6.2411820497976	0
57.390693584019	-2.3550494567383	0
58.32003360384	-1.8635662684895	0
57.867197124921	-1.2736469069641	0
45.831333347402	-3.342449816249	0
44.61506405203	-3.2361945502218	0
44.055886966074	-2.7851356450373	0
56.25	-6.4026058631922	0
56.344780651894	-5.4620420041128	0
55.523790851891	-5.526078566835	0
48.198120477162	-5.4382641396351	0
53.962744229814	-6.2576066685227	0
48.017179035192	-6.0256413890745	0
46.875	0	0
38.684902226582	-3.5197009273439	0
37.930326727021	-3.4059024410912	0
38.125130282498	-4.672818676649	0
39.83410727092	-1.2598096731	0
43.793178101462	-2.1376751283086	0
44.29945251799	-1.6561076009174	0
45.188007055776	-1.1600472403668	0
47.138279888227	-6.7174299668152	0
46.769324679213	-6.1896262271948	0
46.478312721951	-6.9805216135928	0
38.281249989819	-1.3530583402081	0
37.890625	-0.67658234670659	0
37.001158771528	-1.6412160793694	0
42.843566474064	-1.2258959253192	0
36.994649495774	-0.74281914745416	0
37.5	0	0
36.71875	0	0
51.478775116139	-6.4033447122592	0
50.874003587203	-6.1878502224229	0
38.671875	-0.67658235846486	0
39.062391602638	-1.3480152085892	0
39.453125	-0.67670849675911	0
43.566403293466	-1.4767710091457	0
42.961180220794	-2.0537985524414	0
38.67677651106	-2.1181382110967	0
47.408095284532	-6.107914247678	0
47.466340503591	-5.4438982430401	0
42.981513538054	-3.4138062754082	0
42.797698824199	-4.1721324139625	0
43.562853255231	-3.9342777104335	0
33.131027730577	-1.9060307218362	0
33.45325549361	-1.1958382722805	0
32.674234900428	-1.2323206251903	0
46.09375	0	0
45.3125	0	0
47.069201971012	-7.4245382446059	0
47.303019886221	-8.12570160346	0
47.807734803795	-7.4540361796791	0
39.543224548136	-3.6813428585742	0
39.139550962369	-2.9068152878816	0
35.883792327864	-1.2000898370657	0
43.75	0	0
44.140625	-0.98708518081357	0
44.53125	0	0
44.734080692487	-0.65110212790979	0
36.531404340464	-1.1953976069147	0
50.232557883072	-7.7409785744023	0
46.199241877243	-4.8958080707053	0
46.372419673969	-5.682505777373	0
37.776623955221	-2.098715389389	0
38.393764780465	-2.8143121923333	0
46.589399566827	-7.8205252091053	0
47.841265187184	-6.6145438909033	0
36.359506978579	-0.55607798840762	0
34.590619981607	-2.1161999991892	0
34.859158868299	-0.93979611528619	0
35.36347127428	-3.1520076702127	0
38.969132947754	-4.3701058148959	0
45.668747034131	-4.2896240620188	0
36.877523640108	-4.5029805616432	0
36.265143961898	-3.6203018552164	0
35.871994594297	-4.1247717475031	0
39.147357932817	-6.9561478540192	0
38.662196896052	-6.5202528694241	0
38.508708038615	-7.1541509999095	0
28.198890094922	-3.4357484105484	0
28.292468646665	-4.1652634425071	0
28.914300993265	-3.6064422116412	0
46.023751565297	-6.3642777006514	0
53.118490041902	-7.2334614095555	0
53.822732118246	-7.5403592627582	0
54.176164224496	-6.9299188452306	0
37.327493989825	-5.8648519091252	0
37.451410660447	-4.954577667292	0
36.440298168002	-5.6490489174889	0
35.48553558024	-0.62095145491213	0
35.9375	0	0
35.15625	0	0
45.440905237557	-7.2699750906872	0
32.871098604815	-4.926668758802	0
31.929060319533	-5.1896146113999	0
32.564888129225	-5.9327832657158	0
38.799593289471	-5.2253580921145	0
50.878551773724	-10.603484528326	0
51.260392525507	-9.623421428755	0
50.628556495766	-9.553368865277	0
47.812940340263	-9.6267347640909	0
48.46943359941	-9.1361334144282	0
47.729881664959	-8.8113978153061	0
43.178127736715	-10.857711659452	0
43.858571724934	-11.045980509413	0
43.736793403067	-10.162343819068	0
41.278185907903	-4.2923381212812	0
41.599055790442	-3.5269050666836	0
40.648727460544	-3.9358072031464	0
33.965296706316	-3.0034890475984	0
36.006460541913	-3.0353752053758	0
34.643429740706	-3.275014522267	0
44.327449394856	-4.7158145297629	0
43.429267310626	-4.6904930112993	0
35.120444104135	-3.8983530163242	0
35.133140356735	-5.2167285505669	0
39.592149813967	-6.456909318237	0
40.7486841056	-4.7852479242829	0
44.4939720133	-6.9911681180693	0
45.166868164121	-6.4532339671136	0
48.4626472101	-8.4716259375097	0
46.698861518086	-8.9775179648668	0
47.044702357292	-9.6645505292414	0
39.862533418693	-5.5361015869983	0
39.918853594387	-4.5780712067792	0
39.433535148011	-5.0302112167234	0
49.235950692388	-8.6163260277736	0
49.994476810311	-8.4075809194054	0
50.460653251572	-8.9402354126601	0
50.174208577183	-10.811151869418	0
50.330424019382	-10.114832271613	0
55.104277417596	-6.3631485770321	0
46.061683108504	-7.491084223905	0
45.050832502689	-7.8686902248342	0
51.376396820735	-8.6779450942677	0
41.074001578548	-2.8841272534668	0
40.594752597556	-3.3021557691186	0
[...]
CELL_DATA 10184
SCALARS Coverage double 1
LOOKUP_TABLE default
0.94659761378217 0.086946951654876 -0.10380710072264 0.72098254179091 -0.3272464089092 0.13778254248586 -0.26477173418649 0.80327752622757 -0.44303509396416 0.69262604321881 0.89141623357933 -0.10426803183674 0.89901664855385 0.98020147165551 0.83801002465297 1.0230568941264 1.0776101109713 0.8709276424063 1.2948594599583 1.3858375678705 1.2038069341222 0.94065264897741 1.5433190100857 0.93360669787754 1.0022055329097 0.91450786431725 0.90155943897097 1.6376067209638 1.0512737360381 1.3045090533886 1.2231862069173 0.96615137932083 1.4049024441064 1.0218894494805 0.95030488445166 0.79367861968509 0.15645404842921 1.4654167784572 0.4644774694408 1.1478266062712 0.84677667350956 0.77060132609478 0.9035070979939 0.77540854394687 0.44466170890173 0.82697204466085 -0.26051676826139 0.78395316116624 0.51878196608053 0.76415650436841 0.68628779089054 0.79558282543522 0.83949594721276 0.63870280834005 0.69028120558946 0.62395102127839 0.68094374092029 0.58824246937356 0.68503923166144 0.59756109975009 0.75075216552938 0.8505491791922 0.43298708104315 0.90724142506329 0.53592320565442 0.63662942891204 0.51089313951406 0.68192679959989 0.84259619512074 0.7930758131356 0.87777516284045 0.6511914854432 0.83730642426164 0.89425836435212 1.1839109064855 0.60244391429508 0.75258554480849 0.44173588580725 0.51321647726103 0.24361433244247 0.69972796060968 1.4649681058413 0.92530333052882 1.3678756213095 0.64499289234831 1.1170328930179 0.4758536594439 0.67661044707052 0.733778692217 0.41110616611924 0.31616795951534 0.66296251797201 0.61645718423494 0.77657729106395 0.91042952200086 0.35079005696185 0.26158097874078 0.91465296504023 0.72226688165786 0.85007829137051 0.81601004309044 0.45794786662886 0.41648820758847 1.1325850883219 -0.20280194628514 0.36169813727818 0.35395672628278 -0.22144782904887 0.43566139558856 0.0029738220116557 0.80400741514164 0.31418148331385 0.48255306306073 -0.13441002725165 0.29576228681237 1.430943140898 1.1423395562756 0.20744854800201 0.6181066710044 0.83615165323941 0.31259821286689 0.046117152043307 -0.13973848197053 0.81058129332583 0.89757239942844 0.78148968376247 0.94095338274219 0.66187845323679 1.0839176460706 1.2077414074311 1.1523552094977 1.0350552504003 1.1754791987256 0.73048686385134 0.18335379996382 1.002092939757 0.55083198982015 0.25034459636876 0.36316550717972 0.25907494709147 0.76103565460003 0.83880223342648 0.1545703670267 0.80885713289516 0.8668383763215 0.72285154831357 0.98771934225069 0.91141488299155 0.72796005301177 0.12878475105094 1.29661435096 1.2652602838049 0.14936598656629 0.02793913750275 0.10929689520081 1.0543614758737 1.0043513044801 1.2030803147142 0.96135390260924 1.4557275042853 1.3126251768786 1.0027727984925 0.48130790022848 0.55714379746356 0.99471361302023 0.87058310285906 0.86378759199467 -0.052459159205082 0.9508160860161 0.76519913789228 0.96415661282532 1.4367747221316 0.0069255542090856 1.1353664722827 0.8608730011805 0.44353047573039 0.92265459240909 0.79187943355215 0.8829221657009 0.74333430633766 1.4022583835803 0.97500856071099 0.85056599090093 0.84960593470566 0.96914602122796 0.099581895144809 0.95213091826071 0.077375566197521 0.82248047067068 0.55796745135482 0.98193633784601 0.8913636456977 1.5624466428183 -0.23890760698108 0.61119542858552 0.88157575411963 1.181524751865 1.0086592665462 1.0395479045999 -0.1824269950983 0.2147730841187 -0.046558509922096 1.6196078773975 1.1718507770357 1.002940685856 1.1351781179532 1.0106515194773 0.89075149383858 0.84544018364181 0.81170124399617 -0.19544768106841 -0.20005718724636 0.92787886264708 0.076814154338464 -0.11167064381337 1.2696742152803 -0.12754051706505 0.63276690153999 0.91670413086346 0.73863292768165 0.43827666479657 0.022329562165958 0.93309703819134 0.50011290898969 -0.012005801939756 0.50395516754583 -0.10392075059533 0.55701026113244 0.015570838151295 -0.055834968205034 -0.18197247110648 0.21286898056235 1.4926233473904 -0.094773571270235 0.78693680440922 0.17621646515586 0.28892078718175 1.0107568307518 1.5032085500279 0.70191524176081 0.58118321023841 -0.41031490118936 -0.016708292776647 0.94672712182711 -0.39927004009186 -0.47703982805843 0.87806806008344 0.52369587879813 0.72515349031538 0.20452193065176 0.12205228895938 -0.15365548390464 0.086180392825265 0.78354446160529 0.73421926753508 0.71411777388161 0.43439189581307 0.57844916869334 0.43149737130225 -0.077273608049894 0.44197103944365 -0.079754188745894 -0.2716466374465 -0.39138338112384 1.1368860189607 0.24463472795076 0.17132185547925 0.74382002252602 -0.31116448761819 0.043922287524484 -0.21880661348194 -0.40709414358854 -0.13889020466846 0.030220106361064 -0.44839028869847 0.14771528328097 0.20980540929548 -0.28483195972173 0.11482001819561 0.44207295029215 -0.20525352278779 -0.21688448788681 0.14149019416395 -0.38195012759372 0.71559907646317 0.61684048748131 0.95451053202785 0.71620122810856 0.60696406425031 0.070500087806922 0.75637184420265 0.24178274955556 0.083306506418579 0.42528769159243 0.49568508196635 0.75310848981304 -0.13783643672942 0.7898966845651 0.50606405250902 0.71032703157262 -0.22584670892335 0.28538701842873 0.53634302992124 0.66805788911715 0.37054739978322 -0.059964542503217 1.16721437995 1.2951628771887 0.81009739301659 0.403195861642 1.1412041517192 0.93191700203526 1.2761942991928 -0.063542187296222 0.21047452621659 0.97751294093874 -0.092175257756935 -0.26543707590309 0.70565338035575 0.79765377194631 0.49060909360029 0.074443351696191 0.8144734073824 0.84539081507522 0.031513508837413 1.0763786676387 1.220001043847 0.40911787686357 0.36520991870023 0.31833333879866 0.2378309983113 0.11534604383965 0.75769164464235 0.57740794403815 0.57222760199544 0.46033198761466 0.75068678814423 1.1837786699306 0.66099802747729 0.33251652355435 0.057504499102421 0.5890865288563 1.0793958923076 0.97311660463439 1.0233208991436 1.028393337239 0.88712847678529 1.3631657514062 0.65257738258217 0.54151702112861 0.84063774136731 1.4011011326482 0.3050429262172 0.9580975707182 1.1983868823621 0.66659650239155 0.78162053570264 0.92618729238797 -0.038329739916759 0.89810940527903 0.93079857619345 1.4399083002059 1.2075760482156 0.84889102939926 0.11645716411049 0.48309699811851 1.0016089561565 1.0430382285868 0.8116751347391 -0.045609848452985 0.35928871154128 1.1917607270255 1.4641542945272 1.036634370785 1.5095146733307 1.3910037471526 -0.49548640863742 1.2270299198273 1.5643858447613 0.83044297251569 0.95182577730951 -0.1559311999914 0.019968029112622 0.26672936187659 0.10381162655485 0.95116505937753 0.88711996955841 0.87453850958822 1.1857693550304 1.199013523699 1.2006983661197 0.789693705019 0.66236147429268 0.59365409388242 0.58093022019569 1.4366922289828 0.90271514587407 0.89748945422698 0.88332669387107 0.76824578117119 1.2650832803623 1.0587489919295 -0.041276099782339 0.26913312739162 0.28119258915456 -0.19454295561468 0.65619517026479 1.0281980891793 0.20197222645478 1.074337091189 0.081979519359627 0.17942764320148 0.61807583872984 -0.57185964981908 -0.13905721783008 -0.49318527169651 -0.41813132383231 0.17376984307593 0.55909456889602 0.27217177335781 0.41192048468886 0.39515994868724 0.3852782456935 0.65064355996098 0.68892982815828 -0.47757337287152 0.05270300005939 0.30490769345031 0.13850436082638 0.48136218904019 0.54359242342605 0.88188354838404 0.38805928368023 0.28040000244335 0.82902441800218 0.39204252888438 0.13425946314522 0.47948951852462 0.51461499729174 0.77452267853562 0.64748891867651 0.31681813693203 0.24208774468847 0.072793902336957 0.28797087628168 -0.34350187021515 0.41493500185183 0.2535413078191 0.5199458486868 0.26250875240693 -0.00649034456054 0.10780437053061 0.23758842958358 0.28872952427778 0.54754098698149 0.70678096334668 0.14422245582999 0.46235877024737 0.64399817955974 0.40902472778626 0.12980573336783 0.27906942314572 0.68311750250342 0.64743137233737 0.076696697366352 -0.48800115070063 0.29802263055568 0.44377184044921 0.52136332343689 0.6381763702218 0.22443785450835 0.29242194046941 0.19632035317771 0.40492249049858 0.078908120443508 0.30026462673825 -0.093310796929487 -0.31941488099673 0.83462019559291 0.72692157957736 0.59004109487944 0.45579447626896 0.49643031766184 0.41132350197839 -0.41959126661792 0.6053783292447 0.4861269360224 0.64052365184313 -0.26306766211589 -0.36982071355779 0.98858675649125 0.91695656544408 1.2257980994523 0.86495101191761 0.80571435463776 0.6310849530551 0.48262765211811 -0.43677886240338 1.2278786106211 1.2935149080102 1.1983434131005 0.53011448786861 0.6555597630106 0.65415021811774 0.61242883255872 0.42695738616119 0.19840655352458 0.37175879949359 0.36079785914756 0.26990841266479 0.33069624992444 0.057103459321384 0.078805961158492 -0.19451975505968 -0.26933918984665 -0.37188559943569 -0.4078856680304 -0.29215822191589 -0.32432584079912 -0.39037817402721 -0.35777774241918 -0.40486527507261 -0.44178335224595 -0.3880330140903 -0.40145396009784 -0.36000762768303 -0.41529377208511 -0.42804701406123 -0.46776097556128 -0.34532792363385 -0.37460796375176 -0.42681365806709 -0.42367213679242 -0.30156692910462 -0.36622962533673 -0.44859498059178 -0.42548518817552 -0.46102463898143 -0.47038179392852 -0.50634603187758 -0.47691038129119 -0.45252447539691 -0.43222323576345 -0.44456401904017 -0.463911551951 -0.48443819794745 -0.50520325859508 -0.47431020764932 -0.45608783086178 -0.47397913205647 -0.48673381196501 -0.45999602029221 -0.48149907313181 -0.45864665116555 -0.47512887910284 -0.48564457980447 -0.50668087811772 -0.38732996038976 -0.48515684677662 -0.4815673419285 -0.49148939417275 -0.53824537075865 -0.4852246746901 -0.49771557393313 -0.48684421373453 -0.48828824442951 -0.5026409833579 -0.49353125099136 -0.47772399386798 -0.52577571110708 -0.65780676959395 -0.47416885938764 -0.49584902112927 -0.4780992163101 -0.46675658482043 -0.46325661386446 -0.44279217591424 -0.36801731822619 -0.46446171010941 -0.49927044633223 -0.51001105851454 -0.49467469527448 -0.49785506390765 -0.47702763942925 -0.46627091713023 -0.43502871856749 -0.45611046597166 -0.47957727770087 -0.48557740451647 -0.4707870372677 -0.47939737799352 -0.47337981817915 -0.45538109350445 -0.4804779210258 -0.46488546059132 -0.45743809703466 -0.45849577915574 -0.45469065230212 -0.44390244297246 -0.47427421001942 -0.47727700702176 -0.45609714246075 -0.45727052599621 -0.43756619719298 -0.33985370179261 -0.4738511127583 -0.48190197010231 -0.45682425366828 -0.42571522796254 -0.48094947575366 -0.50086376078607 -0.48917294054257 -0.48636996873532 -0.49467333058912 -0.50781943366619 -0.49340863716695 -0.48331999760325 -0.54419485817119 -0.49393931773424 -0.47977727687659 -0.46740646996261 -0.50823063876238 -0.45973656009367 -0.4671229326099 -0.46973111023165 -0.48772545325663 -0.46615604123791 -0.54472503060652 -0.48257361364907 -0.51860084452585 -0.5068281685381 -0.15942582625084 -0.50176277433247 -0.44126987088574 -0.45289390894132 -0.49369110690675 -0.51213550155596 -0.45307041164155 -0.30338036899126 -0.51786113324339 -0.53847649402175 -0.4880632711697 -0.4793931247245 -0.50452467338689 -0.52113579817968 -0.47811966240868 -0.4694738450792 -0.4812792769379 -0.45762461919335 -0.46618751775423 -0.4653793806073 -0.55476343471325 -0.52599663793505 -0.50774525557587 -0.51680822150338 -0.49261252428907 -0.52902372993316 -0.50991450843218 -0.51177586127157 -0.52777688363825 -0.51581059219534 -0.22018343606379 -0.127561104879 -0.52994409183749 -0.51928248175324 -0.42615750448883 -0.43242300297461 -0.3288118301666 -0.18554867228913 -0.39866891503919 -0.41084008083031 -0.98576525714331 -0.53040905083374 -0.53755061191314 -0.52038977159011 -0.5295116670662 -0.62133405353188 -0.54341100379132 -0.55028330485889 -0.5553066981943 -0.53683277311964 -0.25980896999678 -0.54746952684499 -0.56555433486628 -0.051850965124516 -0.48215802226594 -0.47885433880257 -0.64064322317575 -0.53805300764278 -0.55135315598986 -0.62483687016837 -0.43710932677396 -0.35439934146713 -0.54378007177209 -0.46439911802272 -0.47581170305222 -0.52444155702268 -0.47053578146731 -0.45332042327446 -0.49908125362541 -0.46592919089604 -0.44954274146238 -0.3961490268538 -0.48670132279328 -0.42286580917092 -0.46473256348963 -0.43515397920292 -0.47178178304618 -0.45961031984392 -0.40909844505636 -0.42785810458971 -0.45842240420536 -0.39868542086463 -0.44902036710096 -0.39243341972013 -0.53801753330191 -0.58228489021678 -0.55323954643783 -0.90278618807654 -0.42377482445344 -0.45237997618202 -0.30550176354231 -0.3947714154139 -0.35774517041134 -0.53160462556649 -0.044086431445487 -0.38100709895204 -0.35538151536331 -0.32922498527608 -0.39911252476253 -0.18213951174315 -0.28715221702412 -0.42909462691427 -0.08885551651391 -0.56488385592607 -0.43267367010545 -0.28065375332406 -0.4794597415851 -0.45074965044784 -0.44298985787429 -0.32725901827774 -0.56065127857757 -0.59830761654356 -0.48932614501876 -0.47898273859002 -0.49077790745594 -0.49707565126286 -0.49224127792449 -0.50688831603062 -0.44398082609244 -0.48965584374494 -0.45934297594588 -0.49468258782917 -0.20508323408275 -0.095319909574635 -0.62526527883916 -0.5093486571707 -0.54794002276448 -0.64935534951979 -0.46414044811754 -0.45711639035217 -0.47306875638672 -0.4686343512329 -0.4299453765356 -0.37896915434747 -0.46802693330968 -0.47429166465288 -0.46212685647544 -0.47213574014551 -0.4974381758169 -0.48739260682456 -0.51259753100174 -0.47759266755903 -0.48810035183297 -0.43479969854536 -0.52848335569662 -0.57103346141883 -0.52002295220757 -0.51785561530712 -0.49725258161351 -0.17286865970859 -0.046665892820154 -0.58213075880057 -0.46207460345492 -0.47557374610906 -0.40433189601745 -0.44414790147202 -0.22425570581941 -0.22850064971308 0.06353133528074 -0.17482746842152 -0.12791988639702 -0.3252351965732 -0.52131280374486 -0.54552043607473 -0.86286674247498 -1.1586416512496 -0.5668323687377 -0.2425923535664 -0.69018734332774 -0.47059261538282 -0.63513921705161 -0.49877233706865 -0.12571216832843 -0.27575535561363 -0.045293426857766 -0.2925729808315 -0.82645147716865 -0.58227227448226 0.010455661746745 -0.62245524676373 -0.52088128197383 -0.61900776953295 0.032223170281292 -0.16767380883746 -0.63510972289374 -0.4593906359712 -0.56426027642919 -0.20803224201876 -0.52284337008955 -0.48414142480661 -0.50667596904795 -0.47007751781254 -0.58117210938231 -0.53211487060211 -0.59552601392475 -0.12447642529057 -0.60139264779587 -0.058568885535548 -0.57534759035316 -0.53068401491686 -0.44883739431581 -0.48341352222852 -0.45496578748926 -0.19651421664809 -0.394506523395 -0.38326064145859 -0.41670018828728 -0.4332182019597 -0.38386992014646 -0.41374330317637 -0.20252879946329 -0.083533796564313 -0.071203949536647 -0.069811200711719 0.13999762865049 -0.068286985694997 0.10949122450104 -0.023479461493152 -0.42846527366116 -0.36631852118826 -0.31850321733288 -0.39763722695605 -0.56746356146947 -0.52438615646785 -0.52678744010357 0.087281958541661 -0.56605743975328 -0.57732937132525 -0.4981213760588 -0.51333609680839 -0.50952630827859 -0.51325970983342 -0.55483249278806 -0.52433145838202 -0.51700460090328 -0.67616109717711 -0.54419481664865 -0.5383893233362 -0.56328738881445 -0.53219994614441 -0.53780320462255 -0.43696049734506 -0.49277873300308 -0.48666717884569 -0.51271038138871 -0.45289280045147 -0.47400118896883 -0.58383663563438 -0.60062462265801 -0.56183706922953 -0.62358925277529 -0.66897051300239 -0.49948026616459 -0.10221556871347 -0.59555094341817 -0.16436740028294 -0.42662997046919 -0.43432550365474 0.04388508621278 0.2078908248671 -0.26212440826637 -0.19124255891365 -0.51650051472759 -0.0054509395851634 -0.54875538856232 -0.56154234095391 -0.56697978866846 -0.51675875168388 -0.50310183147561 -0.55054190225936 -0.45828040428885 -0.47207011873019 -0.45562627973689 -0.46560729790697 -0.44802829248005 -0.43607472379004 -0.46382662039514 -0.21934592744712 -0.41311866429513 -0.30019196877309 -0.45213066340293 -0.48668309482347 -0.57431776264173 -0.48008885895669 -0.47912479985366 0.01233978580576 -0.44499481529283 -0.4132949211366 -0.48394700621506 -0.47251359902386 0.023601130135683 -0.69694744771446 -0.39882393091301 0.010219309217044 -0.43770511344131 -0.45842633744293 -0.45425657217493 -0.037707383166266 -0.40918362081658 -0.37154264008512 -0.44653627725681 -0.4158642678021 -0.37894704921539 -0.44468089006834 -0.42459901181771 -0.47178369146136 -0.4676014716122 -0.51610958531706 -0.49630032615231 -0.65214171270576 -0.73098389139657 -0.56599731829989 -0.57537026013338 -0.59022475703163 -0.58413224610944 -0.6305329936468 -0.54377943471106 0.18752873384587 0.051983428155066 -0.14337672880969 -0.31453622198866 -0.50106612816921 -0.49839975439869 -0.40453581221941 -0.31818329907676 -0.36873987713752 -0.33567375220752 -0.41547291606642 -0.12513859403199 -0.39171411969794 -0.35694351167972 -0.16987442489571 -0.37356038115644 -0.20749113719905 -0.33480916683635 -0.28955682939432 -0.33860733504503 -0.3794793472305 -0.34739336384312 -0.49720780892548 -0.51465845516526 -0.49697352466836 -0.50819680910039 -0.54882962448121 -0.52727938670932 -0.5259831497245 -0.52956597099409 -0.56687119042041 -0.53785242941811 -0.54771552386871 -0.52023553052059 -0.55164295484754 -0.56042444700011 -0.56810890191974 -0.56915627869645 -0.73112758863503 -0.60752976893342 -0.55240881887299 -0.538026885008 -0.011661423981194 -0.10402235318234 -0.065691133252311 -0.23023425444898 -0.1242862334406 -0.19558175329745 -0.20727619031338 -0.23939892840615 0.017499339059483 -0.23779573069434 -0.014433465242962 -0.29490341911483 0.021237948277105 -0.15392440050585 -0.44911346494102 -0.36098147700439 -0.25848904131969 -0.3265459617989 -0.28279639088077 -0.27816082451106 -0.24144557343647 -0.29280244133785 -0.46306297799642 -0.43785791718111 -0.49167561110658 -0.48494585227364 -0.15873440692818 -0.27933821152358 -0.44967649885505 -0.39038443158993 -0.46789704326769 -0.42472319108978 -0.37983845935911 -0.30802951839681 -0.46955156085365 -0.35619799861502 -0.40595124184276 -0.36549404714215 -0.48317485359298 -0.46016903316012 -0.42604986129283 -0.36368764689721 0.030876952183934 0.074506679660571 0.68723868524239 0.14656315416076 -0.34361880596469 -0.35660600553194 -0.52295117419638 -0.49969335832665 -0.50591239773354 -0.43069473465557 -0.21267580289107 0.18140920248417 -0.32667286445013 -0.23714812659695 -0.54714098978931 -0.48349996627109 -0.3181543262575 -0.27385456742951 -0.13645244994815 -0.244532413828 -0.55862241588758 -0.34927149088655 -0.26028964823837 -0.26368948539906 -0.31888804993716 -0.22676160524278 -0.56746481706916 -0.55381116178713 -0.62319735612006 -0.6097565531692 -0.61087993450535 -0.52932629971237 -0.57156942950109 -0.57402306223714 -0.59837389745409 -0.5759241669942 -0.7594685395044 -0.59818564316314 0.11160830189612 -0.077042208758331 0.10364272179412 -0.0037762669502542 0.16456475560063 0.14575878756299 0.12534275540189 -0.16117027231574 -0.22808816240022 -0.26046827273231 -0.37217933853312 -0.4200635624723 -0.042909714009192 -0.18483511370508 -0.35783156306077 -0.40139016789108 -0.20224174523088 0.0050844746979195 -0.080755592085899 -0.13672304000671 0.063755408565278 -0.093370618504523 -0.27437888732277 0.59379719540584 -0.69641928015503 -0.63913088643685 -0.53618180251744 -0.64344972168661 -0.65166383623343 -0.59012016048189 -0.25309506032663 -0.34172293642511 -0.31717770343674 -0.35639339516159 -0.41060173507872 -0.40577340828334 -0.38963963454769 -0.30119376588298 -0.1142076269138 0.071506299588398 -0.18753582930754 0.34348417544162 -0.7182492886407 -0.59264917506194 -0.64553258536002 -0.53705541812318 -0.20717247051164 -0.1547050344883 -0.42220669044891 -0.43369218013687 -0.069137621682567 0.041385206673647 -0.10155738308597 -0.073537489845974 0.19102421412537 0.27892734365983 -0.097321526977275 0.33663641254493 0.20192990177513 0.040166722055351 -0.69269596844727 -0.61013729391562 -0.61783986281928 -0.58896448276796 -0.67295836583575 -0.59951393186088 -0.57766217512625 -0.5617146647432 -0.57686533821254 -0.53558058490122 -0.54871117425223 -0.