# vtk DataFile Version 3.0
d-2__ created by libgimli-v1.5.0-1-g5991b6ac
ASCII
DATASET UNSTRUCTURED_GRID
POINTS 787 double
390.69538926983	-6.8590643942473	0
389.62290983588	-5.6059259131987	0
389.08884605727	-7.6441667612094	0
343.984375	0	0
344.73594751462	-1.657576502858	0
345	0	0
300.21819744621	-6.7862620467757	0
298.56067359008	-5.5294065864465	0
297.5087064853	-7.3750157509638	0
328.60352230922	-5.0692699899995	0
329.375	-4	0
327.8125	-4	0
287.5967929185	-0.89127888597087	0
287.62401491162	-2.0113647033484	0
288.64450203142	-1.2024474546365	0
349.57273941695	-5.5718630828608	0
348.32703496836	-7.1377456775984	0
350.06931759586	-8.0580310746717	0
281.36403853981	-0.99551023942947	0
282.03125	0	0
281.015625	0	0
280	0	0
280.36750005279	-0.86130032701508	0
341.72064059913	-5.00616225891	0
341.875	-4	0
341.09375	-4	0
282.41610045489	-0.89902588676719	0
286.09375	0	0
285.50337823514	-0.77383683323704	0
286.50193040775	-1.1937327537005	0
287.109375	0	0
285.078125	0	0
284.68325528986	-0.81537636792734	0
319.04023009365	-1.1606513157659	0
319.609375	0	0
318.59375	0	0
288.125	0	0
353.73518215637	-5.4616528858591	0
355.19705847514	-5.5690884301967	0
354.375	-4	0
291.171875	0	0
290.15625	0	0
290.80545026169	-1.2000105381769	0
291.79444305564	-0.77361057015788	0
356.45397856325	-1.4528522831474	0
357.1875	0	0
356.171875	0	0
289.68885175646	-0.8926903083746	0
316.875	-4	0
317.38279610188	-6.5529351553404	0
318.4375	-4	0
363.75	-4	0
362.1875	-4	0
362.85270543733	-5.5103969120752	0
295.00025113552	-2.1334299572991	0
294.75583863434	-0.87879919009496	0
293.6417325533	-1.2295722018441	0
369.375	0	0
369.62212263239	-1.5514559232667	0
370.390625	0	0
294.21875	0	0
293.203125	0	0
292.1875	0	0
301.25	-4	0
299.6875	-4	0
295.234375	0	0
331.796875	0	0
332.34275298746	-1.3631916354587	0
332.8125	0	0
338.06843955854	-11.105477661154	0
337.10102545473	-7.7583898674644	0
335.05184616529	-9.4539873429697	0
295.71964325611	-0.98399460647013	0
295.21005632541	-6.1568874080247	0
295	-4	0
293.1804011115	-4.7406993533003	0
303.74859335642	-1.5495671838444	0
304.41188871746	-2.558882399966	0
305.15508928574	-1.6949923400638	0
296.76302975907	-0.91863428431269	0
296.25	0	0
325.703125	0	0
325.92455835157	-1.5413877467143	0
326.71875	0	0
297.265625	0	0
306.40625	0	0
306.76269720916	-1.5914015511633	0
307.421875	0	0
384.59448161478	-5.137158206303	0
384.0625	-4	0
383.68960028162	-4.7961531735126	0
298.7591495539	-0.83826122437137	0
298.21937958604	-1.7609484826486	0
299.36529740798	-1.6212421402175	0
345.77978456019	-5.6943334602096	0
346.5625	-4	0
345	-4	0
300.3125	0	0
300.47868920085	-1.0854023037288	0
301.328125	0	0
305.68176899776	-0.8253974455139	0
381.5625	0	0
382.05703548911	-1.0632124981415	0
382.578125	0	0
366.875	-4	0
368.6177859098	-5.8962076547754	0
370	-4	0
302.34375	0	0
303.04599665141	-0.76865848304259	0
303.359375	0	0
332.5	-4	0
331.86743566575	-4.9501206674164	0
333.0764223488	-5.3142254445774	0
304.69700714884	-0.80139857550173	0
305.390625	0	0
315.3125	-4	0
315.63562369402	-5.6594814958004	0
337.890625	0	0
338.56849461999	-1.2675756527663	0
338.90625	0	0
304.375	0	0
303.84346135707	-0.63239652643822	0
362.59132402276	-1.4583172782231	0
363.28125	0	0
362.265625	0	0
301.94938647834	-1.5978902593898	0
303.1446673946	-2.7526992688612	0
350.078125	0	0
350.56164929928	-1.197544948711	0
351.09375	0	0
307.98484190997	-1.0130493072365	0
299.296875	0	0
299.64311920531	-0.71737551291432	0
342.96875	0	0
342.33759535747	-0.72174521712533	0
343.20742817018	-1.1311439077638	0
338.0998516681	-5.6952382063306	0
336.33240669338	-5.6874854682265	0
312.78730309228	-1.4525898989564	0
313.515625	0	0
312.5	0	0
308.4375	0	0
375.46875	0	0
376.09203673924	-1.3201986280628	0
376.484375	0	0
311.84165731601	-0.80586548410055	0
311.4813361865	-1.688217878875	0
308.99963413709	-1.1258834172371	0
377.8125	-4	0
377.05187249336	-5.6320409965822	0
378.55727827188	-5.1270006586847	0
387.65625	0	0
388.12883411637	-1.2550103829585	0
388.671875	0	0
286.46816815131	-2.745872161456	0
345.80809315628	-2.7995657649548	0
314.00717628023	-0.99154196442896	0
314.53125	0	0
310.04641962638	-1.0124370775677	0
309.453125	0	0
385.625	-4	0
386.36691206392	-4.9207567384124	0
387.1875	-4	0
277.52051164586	-1.435238888096	0
275.9375	0	0
275.9375	-2	0
314.20534330139	-2.392991894199	0
282.01554175338	-2.0828210293691	0
283.06767368008	-3.2863833249751	0
283.60000487353	-1.4523571266744	0
343.11486793599	-2.7518479593414	0
343.4375	-4	0
327.69839801581	-2.3259898573735	0
326.25	-4	0
317.16758090518	-0.93314944734956	0
317.578125	0	0
316.5625	0	0
320.10354905937	-0.84652513853636	0
320.625	0	0
289.70957410239	-2.015039863708	0
290.93198142428	-2.7613851026361	0
324.17466599457	-1.5076653720284	0
324.93493924231	-0.74589124166086	0
321.1000387233	-1.025976636463	0
321.84885746433	-2.297133912516	0
322.2540535572	-0.96432745275237	0
355.15625	0	0
355.49284889825	-0.79713148462465	0
328.97045976405	-3.0237772348587	0
289.140625	0	0
318.05709368699	-0.77718200578219	0
315.00470727781	-1.115357205768	0
278.70986215847	-2.3769861154106	0
277.44030738248	-3.0961954555101	0
368.61888684224	-0.76153927975232	0
368.359375	0	0
324.16362323316	-0.63086880997729	0
324.6875	0	0
292.60619553166	-0.7764651842577	0
327.28652968516	-0.96473666119276	0
328.34156310205	-0.96574124963623	0
328.75	0	0
327.734375	0	0
374.453125	0	0
373.87130282366	-0.8750567906501	0
374.88311541271	-0.82121142161201	0
331.16239960328	-0.84365121391123	0
330.78125	0	0
300.26066142805	-2.5205169532314	0
330.16558208827	-0.88696722283974	0
333.44229133005	-0.76928642483779	0
296.35025331468	-1.9108883183236	0
336.875	0	0
336.23417877855	-0.67462331902446	0
337.12075212389	-1.0321182293591	0
292.21566738636	-1.8612215172501	0
329.26368216319	-0.72882344209851	0
329.765625	0	0
333.828125	0	0
334.37188486722	-0.78563199533935	0
307.5	-4	0
308.34573406944	-2.3526281505557	0
334.84375	0	0
335.9662121129	-1.5310322487777	0
303.33458136098	-6.5575034570976	0
339.55430706757	-0.7483050274286	0
382.73675759331	-3.2456859846022	0
382.5	-4	0
383.28125	-4	0
339.921875	0	0
340.46082235901	-0.81858970689049	0
340.9375	0	0
305.6392608359	-2.7800726815548	0
381.003090822	-1.0230771600012	0
380.546875	0	0
335.36113271998	-0.75379541228954	0
298.125	-4	0
297.21545716251	-5.4327856513785	0
354.59763870366	-0.82122109357225	0
354.140625	0	0
395.21223474105	-1.2072226891473	0
394.19334953308	-0.84763957055021	0
394.012483912	-1.9714269031738	0
361.25	0	0
361.60707743905	-0.81005255409692	0
345.68207364583	-0.8512318115935	0
346.015625	0	0
341.46079200197	-0.8167072798874	0
341.953125	0	0
349.3262651148	-1.0258056660098	0
349.0625	0	0
349.55684496859	-2.6331818445407	0
349.6875	-4	0
351.25	-4	0
311.484375	0	0
348.45278832292	-0.69373492556799	0
347.58358061225	-0.81712422092202	0
347.03125	0	0
346.58374874424	-0.85790539832719	0
359.8474631809	-5.4122343149121	0
360.625	-4	0
359.0625	-4	0
360.72055885433	-0.86223321678203	0
360.234375	0	0
359.74708867531	-0.95815040734558	0
351.82811224857	-1.0549692235992	0
311.81582256115	-2.7655317925011	0
312.94919928627	-2.9237211579889	0
352.7335221061	-0.7602198840345	0
352.109375	0	0
378.9886384947	-0.87446005971273	0
379.97600607529	-0.96128514042263	0
379.53125	0	0
387.11165191941	-0.86908202767202	0
386.640625	0	0
355.03942598731	-1.6892212227319	0
354.11919514303	-2.665299484802	0
355.43144557297	-2.7915858040271	0
321.640625	0	0
357.68900498892	-0.98351316918355	0
358.203125	0	0
324.5648497504	-2.7127502899532	0
367.88429362641	-1.5851113749514	0
398.31297894088	-1.9721763701244	0
397.30479521274	-1.1867620623455	0
397.33727675085	-2.4322713137966	0
351.49664371246	-2.4652937327364	0
310.98285665357	-0.86874351049147	0
361.20024452353	-1.7250499229622	0
330.72265589283	-1.9405278708963	0
371.38298422651	-2.3173531587613	0
372.02011399392	-0.96237603093409	0
370.96700461533	-0.96410823776511	0
358.68581924208	-1.0757653994521	0
359.21875	0	0
363.80889169022	-0.98759793859024	0
364.296875	0	0
364.81500774917	-1.0980534910819	0
372.94600782979	-0.72448801723354	0
372.421875	0	0
405.28581864277	-2.9545920789828	0
403.7460618228	-2.740264288354	0
404.30370898908	-4.9294938369542	0
400.30801638597	-3.6082984345947	0
401.41544978512	-5.6968113798855	0
402.25023755467	-3.5985988422461	0
337.1875	-4	0
337.19737499104	-2.6521817826098	0
335.625	-4	0
364.08534495035	-2.3843092491996	0
367.34375	0	0
367.84199180583	-0.64934250633094	0
371.40625	0	0
365.3125	0	0
362.84990399099	-2.9308320174787	0
361.63566262777	-2.8079463343483	0
368.31488218729	-2.7581065142901	0
356.64820493398	-2.9244875710812	0
379.3502346762	-1.8424737190729	0
380.38466436828	-1.9785800350037	0
318.84854811595	-2.6397332020349	0
320.15398537032	-2.0050918962241	0
374.53108040094	-1.88804991797	0
377.13380544915	-0.76962882609737	0
381.83671263457	-3.0977374316736	0
381.44804391256	-2.0719749904012	0
380.75741267126	-3.01952004259	0
377.5	0	0
378.03393073188	-0.82294724126931	0
390.12042000541	-1.0346834838843	0
390.703125	0	0
389.6875	0	0
388.05536437163	-2.7082437489183	0
386.92220170408	-2.1144782411121	0
383.59375	0	0
383.1116182474	-1.0192068263514	0
394.20630505161	-3.0938313051124	0
395.20070510905	-2.6186389145549	0
378.515625	0	0
393.75	0	0
393.25771261908	-0.98966537169864	0
386.09040306207	-3.0138835132755	0
403.50466744433	-1.1763519321659	0
402.40915309289	-0.89435767997052	0
402.42486497373	-2.0374217851306	0
386.1915740306	-0.98084902683882	0
384.609375	0	0
384.13496816137	-0.95249035988751	0
385.15050183429	-0.95803117168145	0
396.2978123423	-1.9890945894679	0
404.921875	0	0
405.2928951337	-0.79310587841703	0
405.9375	0	0
389.17770368419	-0.89433372002615	0
390.70185885045	-2.1457047721611	0
391.18914334175	-0.99296246387609	0
391.71875	0	0
392.20997121334	-0.97867742962846	0
392.734375	0	0
340.97358638124	-1.694302141138	0
342.09234588937	-1.6557718855847	0
403.90625	0	0
404.4737147557	-0.73648254410619	0
400.859375	0	0
401.36803919302	-1.2077576502939	0
401.875	0	0
395.78125	0	0
394.765625	0	0
283.046875	0	0
284.0625	0	0
[...]
CELL_DATA 1393
SCALARS Coverage double 1
LOOKUP_TABLE default
0.45139504872917 1.5765948698706 0.44789416623209 0.67087116065266 1.0608577503512 0.46114421502019 1.5275346408239 1.3882877449803 0.65901297791168 0.99867553902805 1.4211510598186 1.5808214172347 1.3060716310055 1.5822387856483 1.7198516744762 0.56418488792036 1.6581922319114 1.3732157408965 1.6871406086106 1.1884252307027 0.63172445979706 1.3308353599527 0.65780344201862 1.0361257363674 1.5371819067267 1.6060941167888 1.666564779701 0.66948209036236 1.1746653448044 1.6508715120651 1.5100287857666 0.2793796811513 1.3657451440427 0.52071702051789 0.97315069947444 1.1568349717912 1.5634574371846 1.6173512213979 1.5922136957392 0.59390639216569 1.0430815781825 0.62666185899744 1.5699855228972 1.0139692243983 1.6260601282337 0.675351419093 1.7193490344524 0.61605938711984 1.416029881119 0.65573794057817 1.5994452109849 1.1882279977687 1.6194353951938 0.99437828509537 1.7206041415435 1.2450500542802 1.6549075414712 1.31469894017 0.5117334014319 1.6092468975611 1.6323165635776 1.6315492856169 1.0538945007351 1.1590543133643 0.60197842261566 1.618037424585 0.85861853951421 0.6625883102564 1.6303798003843 1.260974475672 1.6217078366972 1.2995366990397 0.6938278106482 0.11839280017574 1.0150896488133 0.77168008802371 0.49614444477147 0.51983905174754 1.6861574803226 1.6221719955412 1.6640767895526 0.82801070075584 1.0705481965443 1.1681611823194 1.616794282556 0.61219050136572 1.6118141797922 1.3067131462594 1.6717624546535 1.1667932605535 0.19578444706149 1.5935365095218 1.1722307665742 1.2241364540828 1.1400203902829 1.6346199977754 1.2838432109164 1.765257171211 1.2991064802629 0.78574548485817 1.2025439410847 1.3135619314396 1.0972576741096 1.3010206915475 1.2660703481009 1.5971132234483 1.0807660613356 1.3791153712663 1.4022130073183 0.72771074586379 1.6357680049624 1.1158464004837 1.614725228021 0.5218905254797 1.2971735652138 0.48083778281631 1.430379232121 1.660023322978 0.68127354072964 1.6657510618273 1.6252843021995 1.2118310551036 0.5280802550944 1.6702137072683 1.680293814125 1.3593988281485 1.647554589577 0.54998930420702 1.6496839893883 1.1054172596353 1.6256296308802 1.6122223050788 1.2588125683686 1.434836117737 1.5397077011386 0.53160017612901 1.6516152776278 1.4056273289779 1.1932182160684 0.67094632529823 1.4100633145518 1.3666689314922 1.5998783425642 1.1655340162908 0.76767275944743 1.311693154893 1.7199739509471 1.1837752108076 1.6628630156329 0.78770608673912 1.5914078418894 1.183486136909 1.7311189308868 0.68784068406263 1.0462168366219 0.99858067864911 1.1643925943935 1.2632288314266 1.0326358955562 1.3883677454495 1.2392138817872 1.0622417469893 1.2565302222145 1.1117647935328 1.1549416714298 1.0482660920804 1.1326260852805 1.5765530613349 1.2663499666737 1.4113360133342 1.3163787611592 0.58870323624997 1.2762518850857 0.5435232755214 0.51420460198776 1.2441147174903 1.0456602046516 1.2674906365149 1.7539264112046 1.2922457705837 0.87772565598162 1.2624054197428 1.64081931382 1.639341556056 1.6053969465776 1.14428683453 0.73946244376454 1.1181282665278 0.68702244269451 1.2429549031316 0.78927375231167 0.99418121889246 0.65607241535431 0.90218119031398 1.0944116224563 1.3203589313949 0.67117330171193 1.184402856597 1.6356520238194 1.1977216175674 1.6145564842376 1.3375579916254 0.68602646103332 1.6420359028249 1.3284169506363 0.68879647454096 1.6553019066725 1.1676490998649 1.1643291133092 0.61853141915811 1.0087884897137 1.3739263678931 1.3617347637582 0.91701174287467 1.6104996230664 1.6467264097312 1.6653010587945 1.1387312255078 1.609474201645 1.0369335612619 1.0968903316058 1.6920791213829 1.3258958580295 1.5416157484271 1.1870516290203 1.1915195195057 1.6573739926435 1.6559731891585 1.5837587462797 1.6072267580755 1.1667658775288 0.85825066108399 1.4999238298718 1.6857910216814 1.6949009830935 1.2689476386519 1.7266765173269 1.0568893035486 1.6472513442496 1.1213529189282 1.3341036088225 0.54758141569946 1.5240302790201 1.6899578118355 1.3188617357189 1.5929567738369 1.422534879848 1.180448747455 1.1421994079041 1.5717801661641 1.3075443846778 1.2651814553903 0.67968834858905 1.0652106487384 0.54265273325747 1.1989940350541 1.1497985595577 1.0509948623642 1.1498687490905 1.6522925800892 1.2857876364801 0.79720065637171 1.2846489652792 1.6831305672174 1.2283392371085 1.2284434302725 1.0284815483731 0.53043765364316 1.5613380633312 1.1606080867995 0.6325726465674 1.3780930358256 0.65173099525837 0.6543352723075 0.73893765229767 0.83613606556125 1.6276812082452 1.7583343453677 0.78492853183707 0.62181007938667 0.77863028673197 0.68126153101766 1.7445569724988 1.6251710961441 0.6443725059281 0.61213110355021 0.73678925240206 1.6878152360219 1.0634687892659 0.93263421404696 1.6353432752413 1.0666003486536 1.6077962542961 1.6463657735635 1.2019002893542 1.649958624816 1.0387046892799 1.3192219463837 1.6479638428277 1.3974058494651 0.50848739199553 1.6487535392332 0.68787529778276 0.57726840936978 0.5097675910919 0.48655092977324 1.2989263978691 1.6326540955901 0.58482083037971 1.670065621047 1.0520727620453 0.65966142936572 1.2180376526984 0.7763767127984 1.3809235604053 1.6674084920293 1.0407080656932 1.7322271815499 0.48509976380265 0.5149076417861 0.58759210410858 1.645840483653 0.97036905748134 1.3324882891169 1.0804615390006 1.0811995324172 0.55431389078827 1.2215760191446 1.170226772403 0.94536997216811 1.3747007010676 0.66357294120803 1.6228374534783 1.182829856358 0.92274921147369 1.0849504712831 1.6871729198845 1.0918231187581 1.2510724905339 1.1076314490055 1.2286189697454 1.1575835105961 1.293867039723 1.1539722096938 1.1065166808642 0.45716072322565 0.53906016796012 1.6065054634415 1.5641981166752 1.1950790870855 1.6652103299768 0.5640462745674 0.50539292301868 1.0687037200642 0.83213227761325 0.99067652774741 0.34469964685018 0.54753992105786 0.90655253318996 1.1602550220287 0.90448716807822 0.65299614277613 1.000552895196 0.64078882542332 0.52957502325403 0.44352629858607 0.97287285795666 1.6194513823464 1.0377062722175 1.3763104998435 1.0870731152504 0.96306989490814 0.65273969738934 0.91874136727632 0.68870710419608 1.135793695313 0.61676066933546 1.6226163257002 1.7418714612904 1.6532329853307 1.3522492329803 1.1599620397285 0.86003601520307 1.6369088015315 0.69394179316553 1.2526437176144 1.0997368763733 1.0789437191697 1.7671314711989 1.0020606489481 1.1059168261675 1.6440959458368 0.33594560684708 0.94327119582736 0.69383613221287 1.09971880721 1.1199581224176 1.6795785352354 1.3149610739415 0.56151943139135 1.274992976349 1.0843977655524 0.88319891791324 0.66113116481999 0.83744514470137 1.1409686277728 0.84702337177716 1.0778698851464 1.6043158278728 0.9257033001562 0.51001585024107 1.0619242204001 1.1131971274106 1.6330141235247 0.54627467783564 1.1329692302152 0.49223783530382 1.1286419272502 0.51675282347111 1.6491126703298 0.66158520283306 1.0580051865695 1.418986417004 0.99221099446442 1.3420960214166 0.60194961189837 0.78776552791878 0.71778735944581 0.90698115385163 0.93637591744195 0.16908204190513 0.97028585838969 1.0545535739459 1.3418435454495 0.83753239651493 1.2187561836345 1.2676443852464 1.0986062116789 0.90091851560409 1.19742256343 0.37476703359785 0.55786277178134 0.68309067613597 0.96140278034855 0.6799584468053 1.1101545344261 0.67493086767808 1.6261347459291 1.0894307494005 1.0637742404794 0.63363302176586 0.85731934953186 0.64076611709492 0.7187420807644 0.53927161252279 1.6165227499811 0.9302956553003 1.1367598871776 0.62829913200988 1.2559635810867 0.50152599023143 1.5767414683062 1.1113532932678 0.52376483011018 0.53535816429813 0.47861244658394 0.6397613320943 1.0321146408244 1.1803640598531 1.1355516329263 0.96732500185458 0.62429378281889 0.75211237101484 0.5184145747784 0.62713318025521 0.60952975935473 0.94287390576061 1.0492497664007 1.4392067351832 0.93442708129839 1.1414095824726 1.4112988003442 1.1500203537643 1.1514808529996 1.1337048528328 0.50463905794189 1.712654742739 0.79468209334269 0.74871893746566 1.2711954502722 1.0101580577326 0.53789399687609 1.3097952458864 1.2466464218159 1.260398174249 0.49158880644079 0.71683557727157 0.63866462640824 1.3719836215866 1.0522439773544 0.55768703327397 0.60887433828767 0.56794288053082 1.0289842637466 0.50756561591355 1.1310995360876 0.65485865016695 0.75093949896753 0.85287760052507 0.59803377318912 0.898663096606 1.6276148455583 0.51546179535413 1.0914857205445 1.1037381048868 0.6297395390484 1.2567660669794 1.4194941168255 1.0491501089825 0.5151235832289 1.1589004391025 0.66796651561022 1.034907667686 1.3531655727379 0.88624056029444 1.1582540567369 0.89155594851353 1.1905723576881 0.52714558584075 1.0863629332266 1.2354657326351 0.61160491153152 1.097549177807 0.899821919739 0.49451705413099 1.2508454099417 0.53240543004393 0.76524153303718 0.90099456189355 0.51249503909353 0.59013940947124 0.60450468344342 1.1002762073938 1.1958923497166 0.927173185626 0.6579898232849 1.6453584417982 0.95377241215684 0.96990811895364 1.1652331729132 1.1586363034467 0.57102731127263 0.87094925221492 0.57696263574041 0.94159371605259 0.40906070330658 0.69794602688996 0.71871130168577 0.70769785728688 0.75640782354376 0.53747208776212 0.8220998282357 0.87806294912435 0.74643648313316 0.77447330960907 0.68683418425441 1.2226928706424 0.8260863329228 0.53578291046626 0.81847851813398 0.75365608815126 0.54247349424289 0.43404164302695 0.57210891626048 1.2661603296909 0.62224917966697 1.1082853011747 0.65220828883598 1.1279764042021 0.66884461441657 0.88514126135759 0.52503138514981 1.2279566668299 0.9172511542863 1.104216068792 0.93994740367375 1.0304562573965 0.6954076534374 0.60552468390201 0.86138513684504 1.2057635739253 0.7593918391798 1.2133312597785 0.65251381750032 1.0807539509776 0.62696681677065 0.73000982187066 1.1588573144 0.91758830339597 0.93304092667521 0.61356416391157 1.0038190997579 0.59086492243448 1.2324711843242 1.0057602999013 1.3215157537048 1.2423013506496 0.95157256113752 1.329006898885 0.9620979585295 0.54968100488508 0.96897875207303 1.1612210778809 0.88856042455792 1.1122030116623 0.81439277965642 1.0295411888012 1.1583190944772 0.53794453802185 0.5247637721565 0.498578791026 1.0286598776792 0.61709276251584 1.110257047282 0.74569119501488 0.6134221981039 0.86683861190899 0.52568628071239 0.68605623678599 0.76019206864547 0.68258082269924 0.65697242470065 1.1436933722601 0.63088709122309 0.98341093823147 0.68118749173837 0.83125999642273 0.51355462916894 0.55125818460267 0.96724362797817 0.51902366381306 1.1705799160155 0.70571454716319 0.49043718004963 0.81870674873884 0.87171048093717 1.0615511883535 0.83498160932425 1.333260770521 0.91280895014701 1.1076332952749 0.55106360762695 1.0180453238713 0.82672796471674 0.74609949185152 0.65359074223348 0.66318096840175 0.49184228847168 0.58037199392692 0.58223913027053 0.47702364135419 0.52603723321676 0.47085646196329 0.42969046256161 0.52133681364225 0.85163237512039 0.97586588997441 0.07633879878071 0.5553560913644 1.0762454792075 1.0095626133986 0.52675272047942 1.2099322324193 0.65000519465978 0.72424759675087 0.70931910647246 1.2593617889772 1.5911907405586 1.0531526929307 1.0902527893466 1.0965151168072 0.73199805349204 1.25562389235 1.0330080388842 0.58917785438739 0.6472020852645 0.80207336181972 1.2350120598217 0.89229789538857 1.0252237272383 0.65230437252048 0.83730070791868 0.74332605029969 0.66233251557741 0.99816586505502 0.5292431509277 0.81464790563196 0.97770530000446 0.81473652368605 0.69026824979185 0.64277108272528 0.63042066428568 0.60891513668973 0.66597474013557 0.6524571998558 0.75397363677653 0.51000503281167 0.61712213971404 0.55247502013571 0.43065704789209 0.78444901425788 0.51853662763708 0.54168515531875 0.42646479781054 0.55924358699516 0.45365024557024 0.61184238736964 0.49732193951309 0.7248345496077 1.0162876055663 1.1772663658057 0.8147632921533 0.57543203962674 0.22455284689256 0.9048552284723 0.76855262717135 0.96083689572314 0.9835174226287 1.0941957244319 0.77426566994493 0.68681845228284 0.5247018338374 0.54115141698297 0.96444627001698 0.24611443625995 0.34735326108279 0.69442618935202 0.81496538489716 0.45601735353463 0.78734774394892 0.60961175459509 1.0290633224065 0.59383580235427 0.50344303530715 0.52534317056792 0.81114351940521 0.6492098858496 0.5462707382568 0.5713435001921 0.11605020951648 0.45182369456198 0.60910208539105 0.7483649620632 0.92959605268969 0.35711021389764 0.5576127906773 0.54868516447752 0.57507781687419 0.74228055721911 0.58926466861366 0.933079484442 0.54303655083253 0.31625299961437 0.45296698059506 0.60095239768193 0.58969864135181 0.66271067105182 0.52886006978419 0.49160531981096 0.60655628927221 0.95163272090999 0.51460951251681 0.69051257194502 0.56172815955727 0.52975621757678 0.64849702423874 1.1563884202608 0.6947272443098 0.58745128853029 0.043575314491985 0.52763816938504 0.47246199402247 0.37510720300231 0.27609857509323 0.7658779883394 0.44189909527992 0.26329410380671 0.43309846109364 0.32190118671477 0.58155075854409 0.53583920243533 0.61757058930848 0.53000201480744 0.55617551698755 0.53325938373093 0.93366183595057 0.67754147223292 0.92177378790446 0.74488652634275 0.49177155876709 0.90969148915957 0.50413704712617 0.65762296199513 0.65447311226031 0.48145969434876 0.63780681075376 0.6523382877233 0.65771123301689 0.51368210803491 0.55660763432327 0.51897281759396 0.54239051701485 0.64292093561757 0.59314313002091 0.7427626123133 0.53703435543294 0.55407097743403 0.64358811776607 0.66231504951425 0.52361786193303 0.4403865803234 0.37252716256235 0.60079543987157 0.89802907131717 0.50509486256431 0.84463756214938 0.87101433287312 0.49658242072999 0.72708374145402 0.60739012218849 0.54842594264933 0.83199015115623 0.73048194188904 0.56784868714337 0.62757481686863 0.63545163423903 0.47427271167709 0.66997081293481 0.65668226415107 0.47602277991747 0.66582199077614 0.62218423809681 0.67798668356611 0.74753872673493 0.55197981204291 0.63860997672128 0.79113826619131 0.57728629080367 0.49751760027395 0.68767061801346 0.60288987134074 0.54814957839931 0.63555908438079 0.90976401149719 0.55415304977703 0.51293115081655 0.58717140826028 0.54305691122312 0.48566470805336 0.50545864101861 1.0779987006429 0.74383452803884 0.43344363798138 0.45333640067534 0.67863457304852 0.47457848352653 0.78814793240487 0.83168691296436 0.95217423000363 1.161168820448 0.62179968603274 0.67677612537897 0.58696976777574 0.67607927939334 0.67684464403968 0.55130773312299 0.55538626681561 0.65930028582381 0.61161543998705 0.48785670438007 0.55193543981065 0.58301231740759 0.44153841588077 0.50727203091998 0.24940308242818 0.64537374710948 0.38451684992317 0.38453724544816 0.42325137533906 0.099083214633718 0.4890061941103 0.771215994391 0.67538516138116 0.52549932643995 0.59517682884073 0.42178217189141 0.5749305422699 0.33699954455042 0.5762015904691 0.53798403976634 0.41488975126404 0.41861670152495 0.69954264867124 0.38476251199372 0.49802580548588 0.66531360512973 0.13118416090987 0.4846381436215 0.41128846513857 0.15985616975937 0.67075411201636 0.34806980778796 0.12919317036258 0.52857821699415 0.62938721982373 0.96039057038917 0.79827643489917 0.94170785917876 0.90342762457565 0.70398731644778 0.39238339952646 0.53354693150528 0.53790041876829 0.69926324919536 0.41902819339205 0.47759590504518 0.53975008005382 0.40656975532785 0.58433710302108 0.50551043061393 0.33786495208407 -0.16713918926676 0.37846743802437 0.64979907696115 0.42598824671693 0.55811198636558 0.69259867700256 0.6572897081434 0.68934572680161 0.45763110927212 0.43793810878541 0.55294764443539 0.5662739231995 0.36767872017813 0.34922242569939 0.45935754854171 0.54168668562248 0.48484221496221 0.67100638443828 0.45831802975455 0.64662910900915 0.64513924620044 0.48463809611662 0.42530358561451 0.50829372245543 0.43944700658664 0.13335997172257 0.49979705133397 0.53816309004095 0.66808557012659 0.57095036969131 0.57891160993016 0.40169928229504 0.60373213293805 0.59242033993064 0.6344357276533 0.50749769452501 0.55858049317685 0.15213209284727 0.4437438757951 0.65248032056069 0.48990139290082 0.50641320235183 0.65001121265722 0.52106001767252 0.329951652861 0.46708286119413 0.46875941210243 0.38647410408147 0.47801830049274 0.56138436034497 0.42153445057615 0.4322538350099 0.50598130569125 0.5741914105119 0.44585209266364 0.70022471250699 0.39813229243397 0.46100417484156 0.51700845817337 0.53794061043694 0.38926646705854 0.46583407004194 0.40013698967295 0.51655561015933 0.56020385248449 0.23590343456182 0.38149820793506 0.54942320748847 0.54763997341218 0.43631422669048 0.41863920372384 0.39977177273278 0.47098155098487 0.40562020976658 0.16067778445273 0.44871561695009 0.50066981403359 0.29623229719403 0.37957679565091 0.36308481370087 0.43506197239885 0.31220495654539 0.26690029050182 0.30195141449483 0.39048786970537 0.24740128885106 0.30338501647944 0.17036145491121 0.32813393699492 0.60269651235427 0.3017780389505 0.98178721851511 0.50857684679784 0.19077920394713 0.14407118128889 0.48954894477014 -0.023702793142242 0.27605121565747 0.48649169852612 0.48275270330968 0.58742535355728 0.96339447736816 0.74857410980185 0.50069398606894 0.92882829604968 0.62609908173151 0.7926614012753 0.29894057463632 0.46710595963661 0.30282583947437 -0.2885135012875 0.13339807633016 0.39313975076019 0.18463138538298 0.33592051688372 0.11238911900211 0.14055154691628 0.020777958706071 0.19475562060648 0.34476930121564 0.45121668221567 -0.1601272297112 0.38491582632245 0.49595784062689 0.52583298509371 0.56015756480301 0.53158279959322 0.052369732115216 0.53639217255913 0.47923984810748 0.43603790080932 0.53225307032777 -0.078576440010607 0.25708743723257 0.21226614123161 0.42066112882355 0.39261533995963 0.15012852106192 0.37548810466052 0.4776762992094 -0.051783282853978 -0.027854639982603 0.31134524930758 -0.033583026187006 0.020290990771777 0.41565911375609 -0.31168319459034 -0.11130194917016 0.16840283696468 0.24334524630228 -0.17282891873007 0.54136799602815 0.23089635249017 0.42866818729707 0.056615937900727 0.23012982516882 0.33215609379018 0.5182944118252 0.3778679481066 0.28481552895128 0.39746137809537 0.013350186870291 -0.19009346128776 0.45569416860099 0.172202786836 0.35381482260929 0.1861658590472 0.35879404289869 0.29285453475132 0.40941529874886 0.17017417760698 0.284996097901 0.49857490710257 0.53745349208116 0.002788322527525 0.20650982285212 0.3947626837158 -0.18961450353755 0.24962356308286 0.13646179345791 0.27285183168925 -0.09026285547087 0.43857091689304 -0.027380070999744 -0.024237896932241 0.47895978637984 -0.19338800570936 0.33944918741222 0.24096178997612 0.027135390197876 -0.25455891431331 0.47978027192533 0.51686240942662 -0.066375083837377 0.16807395618702 -0.17036804861051 0.24134720675906 0.33842501303175 0.34615337390458 0.43809069198525 0.20222937259299 -0.31900933300613 -0.13842716396459 0.51505176448283 0.018115189157005 0.66252345563082 0.30971620419615 0.51618926759605 0.52522493291116 0.32311261762793 0.57435043626292 0.021118113294092 0.45728195990237 0.42491253484052 0.35322237896337 0.28901267990229 0.28709664868122 0.29495075685489 0.14836542471583 -0.33566312748726 0.30188694308651 0.57458473592658 0.69234405756581 0.25643041860504 0.423005847858 0.34489727798427 0.034870869647666 0.024968661001879 0.38773582670336 -0.30813005909109 0.3848330154424 0.34709101289082 0.19483555862981 0.41601211150382 -0.28747986075118 -0.13241890059048 -0.3160061807145 0.44431173752924 0.47204086658002 0.20867566571587 0.1814015721235 0.24153406770123 0.08823297005058 -0.065024667078232 -0.13872172073432 0.32600149876579 -0.11194703215458 -0.38251483527063 0.19629356491161 0.073909003634852 0.081583652319579 0.24955837786558 -0.024226024781228 -0.03070451131543 0.26137844929672 0.1433033417706 -0.15638796170704 0.19890985687211 -0.60086570659014 -0.16532858013866 0.018142787297385 -0.21463681317965 -0.26465703381313 -0.061811756144648 0.24163357241565 -0.047373582358208 0.38641386701158 -0.025473110542916 -0.12782586904253 0.1990553282