# vtk DataFile Version 3.0
d-2__ created by libgimli-v1.5.0-1-g5991b6ac
ASCII
DATASET UNSTRUCTURED_GRID
POINTS 3840 double
393.4375	-4	0
392.50261281894	-4.7749852745342	0
393.4052063857	-5.3564901216657	0
343.984375	0	0
344.51999784735	-1.4795132406207	0
345	0	0
294.55804607227	-4.9666376119159	0
295	-4	0
293.76770895073	-4.2365886756513	0
311.79616474311	-6.8233880356196	0
310.5766902632	-6.382108837228	0
310.78227018001	-7.3420293179073	0
287.58986545465	-2.1348678261905	0
288.63703630345	-1.2703833774464	0
287.59960738359	-0.94626727810042	0
366.875	-4	0
367.81550750114	-4.8992230971021	0
368.4375	-4	0
281.46887725838	-0.952721534074	0
282.03125	0	0
281.015625	0	0
280	0	0
280.39693858995	-0.88892544758191	0
350.65672363215	-6.9308214117629	0
351.98287838049	-7.0241340972017	0
351.32215866858	-5.9481901378182	0
282.42250010308	-0.82491880625552	0
311.41823775575	-4.7704103245043	0
310.18558704021	-5.1596948384419	0
311.49381876306	-5.6772246614796	0
286.53579450805	-1.3173446586548	0
286.09375	0	0
285.36259461631	-1.0450092271091	0
354.85987295812	-4.8137608914302	0
355.69155648649	-4.8127568600125	0
355.15625	-4	0
287.109375	0	0
284.46770316684	-0.84050465871951	0
285.078125	0	0
319.03946993658	-1.2296877582801	0
319.609375	0	0
318.59375	0	0
286.50524139653	-10.566374608421	0
285.37726564816	-10.623271667497	0
286.05236085016	-11.514504020962	0
288.125	0	0
295.78125	-4	0
295.40578500297	-4.7665241623714	0
291.171875	0	0
290.15625	0	0
290.71761225457	-1.2830341810474	0
291.87276597204	-1.0154485232342	0
300.3125	0	0
301.05243366303	-1.4072929467503	0
301.328125	0	0
289.66683746678	-0.93239714120065	0
306.40625	0	0
306.93186779665	-1.1964698503333	0
307.421875	0	0
356.4604132275	-1.4385526979774	0
357.1875	0	0
356.171875	0	0
301.86811503677	-2.5503649039887	0
302.32809447034	-1.664465308466	0
369.375	0	0
369.85212427245	-1.3720475164162	0
370.390625	0	0
293.78159676859	-1.1223750851273	0
294.21875	0	0
293.203125	0	0
292.1875	0	0
329.375	-4	0
330.37746500343	-5.0713333911853	0
330.9375	-4	0
294.77576886306	-0.81195944516695	0
295.234375	0	0
381.5625	0	0
382.19755093082	-1.3405127331197	0
382.578125	0	0
351.94562086809	-4.9991585566295	0
353.24491053952	-5.1734011394914	0
352.8125	-4	0
295.71359444086	-0.95114896719654	0
403.00061662985	-9.1878521384715	0
403.68687437918	-10.05808471809	0
404.2966990142	-8.9229783515635	0
298.71404579393	-1.8098437319458	0
299.68740076424	-1.0339259283522	0
298.77946675612	-0.74573236194281	0
294.92950494961	-1.92661394827	0
350.078125	0	0
350.58017478686	-1.3367304754959	0
351.09375	0	0
331.796875	0	0
332.19068424886	-1.2994807861023	0
332.8125	0	0
312.1875	-4	0
310.625	-4	0
298.28125	0	0
299.296875	0	0
326.91018500894	-4.976802981999	0
325.65785383285	-4.9742209380231	0
326.25608562367	-5.8675807846009	0
301.99207108045	-0.78459743351429	0
305.69669627631	-2.0850267182254	0
306.98785846741	-2.5030995742915	0
312.76050029304	-1.4211135536996	0
313.515625	0	0
312.5	0	0
370	-4	0
369.06088690275	-4.8746145384386	0
370.17875320053	-4.8641372944272	0
302.88045125557	-0.85819679584791	0
302.34375	0	0
396.45894610901	-5.7145411579008	0
395.96768324966	-4.618388804369	0
395.40399663671	-5.7366729744889	0
304.93628140713	-0.95955410287903	0
305.87317809444	-0.85022664612971	0
305.390625	0	0
312.47229046448	-5.9791161601061	0
312.6070566332	-5.0287539868947	0
387.65625	0	0
388.08206138996	-1.2586652966085	0
388.671875	0	0
303.88344899184	-0.91968928872201	0
303.359375	0	0
375.46875	0	0
376.10574514513	-1.1753366968261	0
376.484375	0	0
325.703125	0	0
326.16196970992	-1.2581153271403	0
326.71875	0	0
307.97298549384	-0.8477126071853	0
362.63810739414	-1.4027050721726	0
363.28125	0	0
362.265625	0	0
342.96875	0	0
342.43195084659	-0.86589652283408	0
343.38459924627	-0.82667701336066	0
373.02138010863	-6.821715635421	0
372.07649938088	-6.9883020832017	0
372.47119717388	-7.9553211347726	0
337.890625	0	0
338.41286396228	-1.1871357200026	0
338.90625	0	0
308.4375	0	0
343.60027906835	-2.6034888361227	0
344.57928438406	-3.0093779570962	0
311.40024732242	-1.6785701149972	0
311.82268512633	-0.79785878016754	0
308.92048576671	-0.98267933948801	0
284.41970615433	-1.9973208928939	0
285.55509174574	-2.1028413702753	0
286.40968945282	-2.9848116795472	0
282.13695612389	-1.9728235417775	0
283.4083076065	-1.1521237123851	0
313.9862196013	-0.93813860791116	0
314.53125	0	0
309.97130377407	-0.92580814491755	0
309.453125	0	0
317.14676796222	-0.91705832926217	0
317.578125	0	0
316.5625	0	0
314.12888811295	-2.2016456624909	0
291.6543863528	-2.0272704206129	0
290.83035847888	-2.8836127355824	0
352.91602253366	-10.134485533113	0
352.19735469429	-9.0322003529117	0
351.70283085736	-10.320620405053	0
327.07929846623	-2.1489297951	0
327.015849218	-3.1308642495352	0
327.85059520895	-2.9236147282085	0
289.140625	0	0
300.89981720767	-2.9759326975783	0
320.26098415413	-1.00226801807	0
320.625	0	0
307.789272931	-3.1595063600271	0
308.13234390931	-1.9859087817819	0
325.00066344735	-0.99062793561466	0
325.27302683146	-1.9469962102194	0
323.125	-4	0
323.99310448701	-3.1130839651538	0
323.04851302677	-2.7059586012172	0
355.15625	0	0
355.5027884441	-0.80255424451609	0
326.25	-4	0
327.8125	-4	0
314.96711838561	-1.0323033001413	0
318.05005835823	-0.78877421647846	0
368.64483320079	-1.0123385044436	0
368.359375	0	0
324.13166694583	-0.77042235927407	0
324.6875	0	0
292.7594785566	-0.81761725708873	0
327.33538839146	-1.0495020137095	0
328.34373232232	-0.93169954576603	0
328.75	0	0
327.734375	0	0
374.453125	0	0
373.90336536992	-0.99662692469438	0
374.93155748809	-1.0252705878641	0
381.01983735961	-0.85354121262119	0
380.546875	0	0
299.91823274161	-2.2583405022596	0
330.19794103332	-0.75301294825561	0
331.04598502844	-0.98733249417209	0
330.78125	0	0
333.39671037977	-1.0705958395465	0
296.25	0	0
383.0225057768	-2.524723627037	0
381.82231810055	-2.9060470074484	0
292.74757841561	-1.9177316724895	0
304.16640574164	-7.005306811656	0
304.22809051783	-5.9930209470765	0
303.2563197259	-6.5601398195801	0
333.828125	0	0
334.4144886259	-0.9314831682955	0
336.875	0	0
336.4321252692	-0.91036497228082	0
337.36443442591	-0.80443965449245	0
334.84375	0	0
335.89305097753	-1.8530837120881	0
337.22989477039	-1.9046950011967	0
311.484375	0	0
310.94543225169	-0.84704234646165	0
339.57365616978	-0.95142431788953	0
339.921875	0	0
340.50604701261	-0.83253679682792	0
340.9375	0	0
387.07049881964	-0.83656129053722	0
386.640625	0	0
382.93685533341	-17.115792535038	0
381.97487337643	-17.238437036181	0
382.40524855336	-18.111732905637	0
335.39625048694	-0.8945013109977	0
349.46503819465	-1.0494151221057	0
349.0625	0	0
354.60792156995	-0.84643469058635	0
354.140625	0	0
329.41341813253	-6.1166373385165	0
330.40105762282	-7.2110051105709	0
330.66044375945	-6.1671322794085	0
395.18456186455	-1.2112893956934	0
394.18638513584	-0.84902352307822	0
393.99659798613	-1.9734294154463	0
345.60818190735	-0.80260842102148	0
346.015625	0	0
379.0206774405	-0.91728925907949	0
380.05907909793	-0.931247134766	0
379.53125	0	0
361.25	0	0
361.62465282936	-0.79024584248235	0
350.67236874442	-5.0001160200219	0
348.47960196066	-0.95558219643046	0
347.49900171902	-0.89481185672195	0
347.03125	0	0
346.52151195541	-0.85111642214315	0
360.73425951357	-0.842297131085	0
360.234375	0	0
359.75038476908	-0.93798271471133	0
329.33826083613	-0.87982065682279	0
329.765625	0	0
311.74889590947	-2.7599086442202	0
312.91658977428	-2.8792650421677	0
351.74235302205	-1.0519367120935	0
321.14194584921	-0.76092132586178	0
321.640625	0	0
352.69214747466	-0.88500059672257	0
352.109375	0	0
318.81766372374	-2.6958273079138	0
320.0624506565	-2.2657408577226	0
355.11344232618	-1.7038619940214	0
354.50332358789	-2.5609103393333	0
355.50489749204	-2.8523413084965	0
331.21984143449	-1.9463165784386	0
357.67670550335	-0.94651502774286	0
358.203125	0	0
330.0563309587	-1.876605305809	0
368.81026505725	-1.9837045460312	0
351.6130314032	-2.3702068280956	0
325.06344780027	-2.9281369304614	0
324.6875	-4	0
341.43579400187	-0.83520617486589	0
341.953125	0	0
361.24650763983	-1.6699656140439	0
371.46106457214	-1.7880542190635	0
371.91665219327	-0.93841520090926	0
370.96313168768	-0.98261900682081	0
358.67387727579	-1.0388096125026	0
359.21875	0	0
345.51623074583	-2.565260989825	0
407.3680055203	-1.8558220909976	0
406.4821413472	-1.235533723521	0
406.60207979165	-2.7897875311742	0
363.82360702711	-0.90107819047256	0
364.296875	0	0
364.80578842115	-0.9769966116454	0
372.89240132069	-0.96674400833434	0
372.421875	0	0
370.56839356395	-5.7072952055234	0
369.96500043671	-6.6167151291286	0
371.16922622587	-6.5732359050971	0
350.33038884711	-2.7799031848385	0
364.11384555695	-2.0611632363661	0
365.3125	0	0
367.34375	0	0
367.78739457331	-0.76980698343645	0
369.47564707304	-2.8047211426978	0
368.3789342761	-2.761622414063	0
371.40625	0	0
375.34039144779	-1.9318291984467	0
374.41392728334	-1.975401279667	0
380.68569797623	-1.9714566058449	0
363.07944241847	-2.9088847116085	0
361.7075449582	-2.7610009452676	0
377.07915796992	-0.79593995555449	0
356.65219754168	-2.9043165406842	0
390.16430103795	-0.75408813729143	0
390.703125	0	0
389.6875	0	0
379.49458375687	-1.8318033621357	0
386.83630147285	-1.9891148588406	0
386.14988999571	-0.93950986741044	0
377.5	0	0
377.99105188716	-0.906496590844	0
394.18584901692	-3.0930971788814	0
395.10983181279	-2.6082937924763	0
393.75	0	0
393.25258882413	-0.99571101151871	0
402.46767109932	-2.0209522670544	0
403.47823276735	-1.2172624876182	0
402.41940649241	-0.90895285396883	0
383.59375	0	0
383.21306977755	-0.76831809193062	0
396.19139831529	-2.0200123243835	0
397.15272297211	-2.6945132558598	0
397.26443497592	-1.2468572673135	0
378.515625	0	0
406.953125	0	0
405.9375	0	0
385.78852469365	-13.252634907257	0
386.3233945128	-12.112597224151	0
385.2160291268	-12.085699580006	0
384.609375	0	0
384.11527724156	-0.85197126925808	0
385.11880851651	-0.91569120199222	0
404.921875	0	0
405.3301164642	-0.9827775827968	0
347.88857411183	-1.8166094761113	0
389.29390349185	-0.98168574552735	0
390.0886079788	-1.6926901961283	0
[...]
CELL_DATA 7354
SCALARS Coverage double 1
LOOKUP_TABLE default
0.50033253699355 1.6025273881712 0.51669435022319 0.45636450334354 1.0503792536782 0.67113091789764 1.5088634452203 1.3544248407059 0.46969776739481 0.89812760107566 0.58241596029515 1.2870377252063 0.61021041242061 1.5606390101484 1.2169425875088 1.6396899385718 0.17421397835586 1.7113171465786 0.60995163042193 1.6462004102699 1.3239616174672 1.5714315481388 1.1717329308631 1.601344728951 1.3138495839205 1.6492092082906 1.1077853107599 1.5472209744408 1.6157173563347 1.6050893482706 0.704176243112 1.195773802057 1.6581340690711 1.6594299441546 0.58693685840216 1.3867384811198 0.23897803850159 1.1923664017715 1.0679803028932 1.6233143167191 1.1578819574202 1.6943722063554 0.69418932019216 1.6003510415919 0.58003007517154 1.3466720883924 0.90434807037895 1.5996982855734 0.61748381952847 1.1904792951042 0.43105172220029 1.3608087824314 0.55154702028586 1.6084684156016 1.2606277412781 1.6161983015138 1.7362312316484 1.6108673982768 1.3309133565895 1.6067133554738 1.2211871471729 0.45380934211481 1.6006292528498 1.6569482336089 0.73689724893159 1.0601023936594 1.17259358391 1.6745591947829 0.86071604754829 0.82824348151245 0.97990150999868 1.6550930158328 1.278791859982 1.6684828699242 1.330970317823 1.1599703254402 1.6495934189515 1.0366526725126 0.78211503914639 0.24066502732805 0.66988949550469 1.6002686882766 0.88128521121582 1.6473035036508 0.73014140866061 1.1053322758341 0.59504276770273 1.6109331843177 0.50783905089424 1.6226600643825 1.3003414243925 1.6545938935714 1.1919731907764 1.6845525404847 1.6117442366831 1.2221384103343 1.249587137756 1.1524062944388 1.6383094038359 1.2379946664458 1.7241863594084 1.3438765838077 1.0038553512889 1.3423930274639 1.1652823365972 1.6326646650199 1.2509278101994 0.87463263509357 1.6214581141455 1.0511936625044 0.45910186814333 1.2470896316334 1.2119824245229 1.5724105933049 0.97653517931706 1.5891241685523 1.3893438454779 1.1942492510512 1.1493977014691 1.3853345690391 1.6662164733977 1.6188533301733 1.644995300683 -0.25619500871667 1.1977719624679 1.6645250869037 1.7342944217343 1.6289423062292 1.3108743202217 1.673001124092 0.50566935415819 1.564231118456 1.0915005523232 1.6479438690319 1.6672785850598 1.2552454887824 1.1296283390711 1.6212458236921 0.58529580400152 1.665793307735 1.2130613798416 1.2220288544697 1.2991270221257 1.4163737063012 1.3642543418367 0.77247397786265 1.1702743431785 1.6844850945201 1.3745831873493 1.6187652510035 1.2964587697529 0.84407552642765 0.77577838452899 1.1019296079562 1.1187494119257 1.5897101916709 1.0152534842587 1.0428919331163 1.2304448609193 1.0003978396746 0.51063437219776 1.0491518032619 1.4080110273039 1.3744150566534 1.0939090634549 1.3381335137836 1.1495039139408 1.1723621780995 0.7544240868688 0.79397481007772 1.0911642721311 1.597821143588 1.3424546939824 1.3491451578389 1.2997995626026 1.3244825044299 0.48028804355077 0.80299996308804 1.2595444613393 1.0172443394786 1.7066578465023 1.6480259223296 1.1482116710693 0.62703656687731 1.2785680920864 1.6545261017571 0.96978516893291 1.6157667614683 1.1321152193274 1.0415081958512 1.1476113473549 1.0919909188126 1.2586617959016 0.80420167078476 1.3619938625119 0.76128963573696 1.1423688250527 1.6561473741458 1.0111712362659 1.226905187787 1.1305348680249 1.6254150755958 0.6944962847423 1.1902101852989 1.3227486834856 1.028342330528 1.6653620531352 1.2481657774265 0.81158060860469 1.5681139682636 1.1552052513734 1.6207030565818 -0.01530890571588 1.6589191050915 1.3840626568809 1.323191590957 1.6389099280793 1.1848168422748 1.6339171236617 0.86709012771639 1.1874884076264 1.6139164277058 1.5852902844693 1.1067583107228 1.6582894653186 1.3023749345298 1.0496641293805 1.2025629050549 1.620283768906 1.517856339041 1.6458634764656 1.6915377812607 1.6519017308605 1.1837183047427 1.0880325076793 1.137372140317 1.6695022098558 0.99983753021784 1.2063183744451 1.6815599295705 1.3821274681295 1.6364956639126 1.512642705897 1.3159522457797 1.035067039022 1.0728255311814 1.6874817163196 1.331976554735 1.2192140578753 1.6500072631793 0.60130132471047 1.0362397245617 1.5847646434014 1.2072224851248 1.1764034881849 1.0089002501997 1.1731760191667 1.6637990693136 1.2117660877237 1.049797900029 0.98081084362881 1.6651106288876 0.12770331276105 1.364388088215 1.1558934440124 1.2031978981396 0.83540200167894 1.5358507290007 1.7109999284306 1.6446333234868 1.0021101894611 0.94555981862966 1.6302585772997 1.2023417963839 1.7216455856395 1.1854127579635 0.635497119037 1.2757968214669 0.59483806766669 0.59044300873359 0.93986958818365 0.71624299130255 1.1566169970609 1.5974541299898 1.0615370583816 1.3266420266459 1.7121516803082 0.62666616439512 1.2707809691077 1.6541523981924 0.99029158071293 1.0745248037845 1.2125095062604 1.6732054870367 0.89245715079549 0.9403297493978 0.97610010229034 0.78639549776686 1.3825947002071 1.6708255660065 1.0536994000891 1.6319222063701 0.9918233611772 1.3406329113184 0.97998806287204 1.0971586452906 0.55503267796929 1.7093812055861 0.69486144052048 0.9420283995176 0.96378939179236 1.6684621185204 0.59663104916334 0.78374409814102 0.96025600618864 0.64745005846361 1.1625972249017 1.7262988585123 0.38164720857002 1.6045102594625 0.69624009819803 0.90056251622983 0.88326412287963 1.2274336343507 1.1737358666586 1.0405986755223 1.383032983704 0.5033826476352 1.6528471446524 1.184570122498 0.87110728607673 1.0650114064962 1.6537134232362 1.0432843900885 1.3401835203248 1.0212992001229 1.2160159146299 0.99975412763353 1.3407296960214 1.2048916244649 1.0291781951313 0.9696277160761 0.73459363035947 0.63463711702902 1.6047009867122 1.5867752027886 0.98427577265761 1.6794080066026 0.3517256173966 0.6810121265161 1.0470570848326 0.89724317268355 1.0572786341657 0.83691507573414 0.64222934169501 1.2028187974571 0.87084562820101 0.90961346126056 1.0668658262793 0.81664742611994 0.27149695985482 0.56068810371833 0.95009951344242 0.60338104508579 1.6352576028819 1.0126987935214 1.3751607054647 0.88172120964434 0.92534002797249 0.6959019729755 1.6531866465345 0.47966285047973 1.0855521236776 1.1426656764207 1.5846586647475 0.51667679685188 1.172193456397 1.1430893101161 1.2186587196196 0.61921387369383 1.0423633955386 0.64384082413803 1.6594864336876 1.5723394065502 0.5304541081063 0.62726316185391 1.1937536495684 0.9612868256968 1.6522606760778 0.73514181529728 1.0472814006262 0.71164768822448 1.0925266185472 1.0616202241468 1.6541013909914 0.45100815030868 0.9048626478939 0.98083674989978 1.5978954242149 0.61028409949811 1.1144213835813 1.0438997021992 0.51238164376933 0.95878447103835 1.0955788446076 1.1430908785332 1.6642195601231 0.62663001234124 1.7101548351618 0.62536031145171 0.59736300760971 1.1777986339455 1.0799186981991 0.61723529438008 1.6603772536561 0.43804209625793 0.61433170748113 0.53909281395657 1.2012008032552 0.7332420631078 1.2304867958413 1.6689246298849 0.51644171534877 1.0642634965856 1.3287342773342 1.0246730072136 0.97911911014676 1.3441886966242 0.74940118046074 0.70210899064555 0.75548682399453 0.98992156813246 0.045478865941265 0.64988981233116 1.2641086685188 0.82473164873871 1.2309295459918 1.2187029945464 0.99996459253718 0.54414750537984 1.2087357894247 0.73038906878865 0.45551610907974 0.81473306317688 1.0129230460113 0.63329912438157 1.0990933360062 0.65317474115669 1.6455706398213 1.1160224407458 0.80887057332443 0.76019486647291 0.70925123649387 0.64599052937375 1.6177049604802 1.0815916211394 0.61529446175528 0.54152582558423 0.58699005273663 0.63034954367331 1.2156181653224 1.1605794921184 1.008017901995 0.53472492776318 1.6281790547056 0.92020070049143 1.1401600018072 0.6122838373481 1.0066756891869 0.52504028159083 1.721503676262 0.99456892253169 0.53501162116042 0.64535751818179 0.6290303660504 0.55912776271595 1.0071399871574 1.1650248961273 1.287013811039 0.9871588383652 0.54519477302436 0.57844533681804 1.2397169408206 1.397441668694 0.53935859012073 0.46681513563502 0.97602032833331 0.59617284579056 1.019985953137 1.3918540030833 1.1591370368605 1.0117823034323 0.53625960339369 0.60879453664612 0.52782259170226 0.62113617194091 0.58293359473275 0.81275629284941 1.0026928536121 1.3747723708045 0.93930749685273 1.1822622275377 0.97494844379428 1.1935858010625 0.58597179778839 1.1176067614908 1.2309139833958 0.51663841090465 0.57689645687849 0.42554605568056 1.2126742419215 1.1499172490278 0.98271219435958 0.5852797104167 1.1621070589886 0.52644962372941 0.7831956528034 1.225107420104 0.62294396789767 0.7672507009902 0.94536642711015 0.94152965786536 0.9827253674192 0.60547858332708 1.6362339911602 0.50727103308585 1.1756265416548 1.1881759101165 1.0498392962649 0.74520839200712 1.0040060274876 1.1436403601068 0.61074382497896 1.1615393541167 1.1111492024697 0.62646712519989 0.72909691144542 1.0626283554505 1.0552518672751 1.1546075298085 0.17749600684096 0.82064435004375 0.89303022073105 0.84067374291316 1.6380800969107 0.95304303225466 0.95593819623633 1.1680168496982 1.1418171908373 0.46312344876039 0.85423781729413 0.59007363760243 0.81920441074084 0.58938888850095 0.63223146401658 0.74202327967578 0.68446616369112 0.6664327591872 0.51084527078474 0.80765675862208 0.33616248571698 0.56859905091667 0.63035615649575 0.65679240413532 1.12980461727 0.46973092026703 0.37172344507906 1.1599248590439 0.94216660901398 1.1342743693789 0.76746351830811 0.54009589037294 1.1014622420069 0.64411198547232 1.1956940378874 0.92881465668869 0.97876829337491 0.76758840439748 0.85242532636921 1.2366206362954 0.60461078363237 1.1203847534191 0.64078299911072 1.1979075099547 0.77780051244721 0.89438383602932 0.57871393208098 1.2053848581886 0.56107521436628 1.1018363265326 1.0595605679412 0.60355941412301 0.89759738086717 1.1658939845276 1.0395660989115 0.97131569307276 0.64850634812198 0.6591983421322 0.94220304247449 1.1389459555478 0.68177638114625 1.2295108275682 0.64226682938778 0.51728453242212 0.62826003034226 0.47544573736169 1.018308400724 0.93782710533238 1.1145480798097 0.75151711383735 0.86500614766715 0.75860077956402 0.8131127803129 1.1637305345861 0.7743803727927 1.2351305946828 1.1205111841157 0.63558938799402 0.68099308314796 1.2074370846001 0.63366698449804 0.71913146782987 1.1509912165451 0.85363116032044 0.89240398442597 0.60099715109365 0.70759869474669 1.1021810030258 0.71735653144092 0.70301019353072 0.6633187866044 0.78170906860205 0.7956975399833 0.80822607603823 0.61771108903368 1.1656456050443 0.64284003950572 1.0268386824471 0.67418601071808 0.88777251632495 0.55121192255641 0.56579317306869 1.1224498858608 1.0463932536833 1.2232175143725 0.91407334204606 1.0027042062232 0.75550744586126 0.81152621069949 0.67010070218534 0.84857218825478 1.1178728451307 0.60171226728167 1.2011943829777 0.99804902594433 0.59119831055262 0.90580043817891 1.3742035040941 0.98961105522171 0.70940391062828 1.0199145216231 1.5947778534949 1.0287406069722 0.55227808545493 0.52550727052162 1.3605708075233 0.9876943609242 1.091863050573 0.55534702921364 1.1195909884601 0.60251558221017 0.63211335095712 0.65416748452152 0.50553643987526 0.46746946098866 0.54942322893163 0.58154593516113 0.53673390946676 0.66027355321381 0.60026262435266 0.52334955208986 0.39103666177104 -0.17112396392678 -0.047134575747632 0.83836849619287 0.55601322444925 0.61773715213763 0.47974411059313 0.60193164718174 0.47440555485503 0.77719818450565 0.65247385309399 0.64095036844012 1.0260984618185 0.79200016502959 1.1903830003581 1.2360486356488 0.63501133051992 0.78119899828211 0.54657668471201 0.99283877743083 0.98079702921399 1.1241344053709 0.5260802956783 0.72680887622251 1.2026542485691 0.93532851697122 1.0419724898641 0.75632359023116 0.90798935148855 0.81417209258804 0.58021237600337 0.80383718643552 0.96019813438266 0.79375400453485 0.68466139315111 0.65556375458897 0.64228165308849 0.46307289347507 0.68478809890788 0.6579092103245 0.77160289777413 0.47895234686517 0.49284007052013 0.56614126824377 0.42242776334803 0.7979793004308 0.52897747695811 0.55766086902784 0.45335919581638 0.56586464277932 0.78897895870109 0.86603638732303 0.42640798091462 0.64322360374891 0.55353514056614 1.0234579405977 0.87464477569039 0.47357601801326 0.82057039425418 0.77659280536032 0.70248377230407 0.64516964179347 0.5100316998978 0.70243365366665 0.83772964273183 0.24926726986477 0.54538192284569 0.82678700284791 0.75745198686685 0.6746345207973 0.84542743589605 0.52837606470046 0.93041237484189 0.71402214519957 0.70750792106765 0.87075860687768 0.85340431836341 0.82830277036155 0.58846781025082 0.50872303786727 0.90561673277641 0.57792831938653 1.0060486080418 0.79263293862048 0.43221640408945 0.86250485162053 0.71486713540504 0.67110712708875 0.60038768828801 0.69660094641255 0.71372795529439 0.69843314078751 0.041760015207137 0.554668024517 0.44672035936571 0.42423420470181 -0.36928012586272 0.65153863169191 0.45633511940213 0.50549219638399 0.61302330345853 0.82492366920336 0.70765503860661 0.51003507294376 0.9152926979325 0.49208270566496 0.46733818899715 0.83717535951562 0.50539071435484 0.67177065222143 0.83079976668374 0.60407803213385 0.63506566408252 0.52592104166388 0.67899031167291 0.59165312846156 0.71487424654303 0.69567080928611 0.72211407672316 0.5403565072508 0.68194895128825 0.67177629385265 0.73502522537412 0.53891349318323 0.66917985538663 0.79929327821228 0.84444623887375 0.57288891175512 0.6028717887374 0.95382879930181 1.1961554044092 1.0406411520071 0.72211903827739 0.62454933291879 0.44259296985767 0.531270984627 0.66516514976821 1.1090126563223 0.84408487428577 0.57478835992208 0.53926335671463 0.5425612842947 0.56382566009556 -0.099573987227131 0.61449861473579 0.41929096559596 0.5189681959846 0.77502121977894 1.0365345775714 0.60827904508564 0.85415411066454 0.49749379888598 0.57397004528372 0.53102549289949 0.83961218927783 0.57967740909063 0.88183645393017 0.50020413878133 0.50198169326278 0.59853297188475 0.70779161798773 0.87657008853045 0.53896996322056 0.69674554743726 0.58295823333017 0.53184899281483 0.85645142103858 0.86132796544814 0.71489134217211 0.63718396043935 0.47918804823871 0.35524868651613 0.45431805333146 0.31982065187343 0.47398525274763 0.53836912626827 0.50525021788507 0.57852341278681 0.67769690834834 0.50016763560782 0.52981579318785 0.40867389031986 0.53243953924139 0.72787601730675 0.61669021847715 0.91299533435847 0.61015644524371 0.58443780350687 0.67825706826637 0.50821864057064 0.80041064855801 0.63751529211558 0.58183275154294 0.41809556304742 0.53929748573743 0.43706823735372 0.38165328918949 0.43103534219769 0.52862810783941 0.36452618116631 0.44451431959931 0.31762731294943 0.40402469813596 0.33769867652591 0.18474769820333 0.33382153760624 0.53175675020692 0.70386865968808 0.45054237104058 -0.044830593873776 0.56875008120987 0.71230208977651 0.75759454424217 0.55709608533811 0.59168894675445 0.50844250627724 0.67734106972111 0.56205963295832 0.93298055377891 0.52857650166859 0.55149757898535 0.61652972726872 1.0531631781985 1.2052807597605 0.55898274471919 0.68510272559119 0.61101742269661 0.73121692823285 0.62629978355845 0.502132661976 0.49158135175429 0.61868782035386 0.68667157944528 0.54028950364507 0.62409827214727 0.6801704452307 0.72054145528576 0.55427582299062 0.93062933822529 0.50810731709212 0.64136680325885 0.82469116425618 0.5592689639169 0.65156976206296 0.58398533196526 0.63591622768139 0.67220171899148 0.69465907459677 0.55697326852489 0.64229237722501 0.60388309850255 0.59191348732342 0.59259435510348 0.54346910105661 0.44368260430749 0.64819433753489 0.8400412145404 0.5497273269155 0.64752910062348 0.62102326267291 0.49817948705775 0.4912926736476 0.49532931266159 0.48033873799699 0.31630830421626 0.30153483379598 0.39281850304522 0.60550971427653 0.36755592762066 0.40783105323779 0.49154214635005 0.56503080884313 0.47399499747033 0.5309133816241 0.45214786412875 0.53305598139687 0.44545791545281 0.47417118764223 0.46576673587345 0.32191234009432 0.40876988751271 0.46702932073699 0.56093618722805 0.63971474542628 0.33471840983788 0.7834976956531 0.70831441400697 0.5375535552196 0.6002506645243 0.42752038453214 0.61056658055505 0.55441373754853 0.43936554880175 0.43836753065709 0.347528053575 0.3264243021359 0.39545625599069 0.45660229050556 0.6621130309611 0.57143684552662 0.50395659534438 0.65054400883882 0.28535146855277 0.37083794629764 0.30036007365263 0.19736245168616 0.49852630815225 0.27207995296384 0.34743817498197 0.19316061360355 0.66937935905701 0.28477925699257 0.075948309829875 0.19291950543323 0.21570336630388 0.20952722356174 -0.12188763047534 0.30697210339522 -0.028635669201095 0.27281130455503 0.25531397046024 0.27396292000893 0.42432470857347 0.40539813776108 0.21377135078945 0.36614785347657 0.02477566277592 -0.089145686118749 0.081486950147006 0.27859556208825 0.29873001651726 0.61738486032134 0.57849448567364 0.66982672926231 0.56802972137072 0.72200633987784 0.70852607470377 0.54058232686613 0.57479637938703 0.57780603951975 0.51570299934099 0.56742808819987 0.5029807749826 0.50662199023883 0.4642378865701 0.42158250827873 0.57217838917638 0.49671806057139 0.47481917837368 0.21088537535763 0.5439206776079 0.66563918515082 0.5211177709512 0.50825308463613 0.33900377843903 0.35337046661453 0.36174855169948 0.32351576279512 0.36626626125255 0.43964069060313 0.39625046284275 0.32170165918701 0.32717371138952 0.48863012062567 0.38852214730932 0.35640550215463 0.39206200684839 0.38835480786743 0.42354803756741 0.43036661064399 0.37469981160138 0.28087458199979 0.31314965932943 0.23507226911146 0.31964290978888 0.33259693785557 0.46172427656189 0.39681103090014 0.44871782529712 0.22854081292416 0.25785450713092 0.31915452918091 0.23927424819608 0.23237312537406 0.51778868366236 0.68834334020373 0.59001286509238 0.19984258470999 0.59476884081147 0.62187885106595 0.47979254425881 0.14244090411176 0.43036096262383 0.45005233459689 0.56955424756848 0.18002928012864 0.4239127926591 0.426282167475 0.17094101365764 0.23635489180825 0.28927040042439 0.26310668489133 0.2833441517129 0.0082320263855659 0.46000736839647 0.46545703318657 0.61889437635555 0.46214361740583 0.50754649535627 0.49609904438938 0.61937209097507 0.31602567919345 0.42469511442093 0.39422769006324 0.43202911797958 0.24129591984536 0.47249480719328 0.55562091972571 0.39677162121082 0.33870324755712 0.47043037773628 0.28981214999566 0.30863525103243 0.27527940334967 0.30530637836623 0.27765549032479 0.2322136506282 0.20773984433536 0.23398530453383 0.051117136744736 0.22850369160544 0.22679141397192 0.22929267894138 -0.51996404780383 0.15113541946166 0.12665542560491 0.22086138226652 0.17941524193314 0.20914272297214 0.19524217559586 -0.12965046492416 -0.26035906750199 0.14763702612425 0.18357708840573 0.15912063383696 0.23051114310738 -0.12006074661715 -0.12395397524685 0.23798083131939 0.12957476404026 0.1116109256259 0.17067823817076 0.14442058894028 0.2587941115224 0.12691967426751 0.16439999129218 0.1311175516981 0.017959043802197 0.11490130420238 0.24610365679755 -0.12122731227432 0.0047156992863023 0.037195996091048 0.05192732503239 -0.18576794165725 0.024605748249002 0.11656048031201 0.2546031189036 -0.043949872125806 -0.11277142124547 -0.21210759956814 -0.39372592926886 -0.088201413744847 -0.23143980336214 -0.080693423185112 -0.25285266254265 -0.12447634221838 -0.13713585181036 -0.21969194027811 -0.18664842440341 -0.35171807836791 -0.34248374104408 -0.33417789699752 -0.19971620750879 -0.55945650975692 -0.24553487661906 -0.030739824546367 -0.30694269908068 1.005781146755 -0.2084753109331 -0.32689537402829 -0.35295687536469 0.098059290888287 0.23648107658194 -0.19340805643571 0.51277092104305 -0.1653811874115 0.51612327302206 0.48196676911599 0.44418029762465 0.49368353028401 0.5026419823059 0.26942977002611 0.44523872396621 0.53708884674066 0.34518617267725 0.42221993752054 0.40440181915889 0.50735578289954 0.29217488585731 0.30946599545793 0.30589768573639 0.33560689224302 -0.0068297652278884 0.045193461181029 -0.22577368775223 0.61283371209773 0.36318721596698 