# vtk DataFile Version 3.0
d-2__ created by libgimli-v1.5.0-1-g5991b6ac
ASCII
DATASET UNSTRUCTURED_GRID
POINTS 3840 double
393.4375	-4	0
392.50261281894	-4.7749852745342	0
393.4052063857	-5.3564901216657	0
343.984375	0	0
344.51999784735	-1.4795132406207	0
345	0	0
294.55804607227	-4.9666376119159	0
295	-4	0
293.76770895073	-4.2365886756513	0
311.79616474311	-6.8233880356196	0
310.5766902632	-6.382108837228	0
310.78227018001	-7.3420293179073	0
287.58986545465	-2.1348678261905	0
288.63703630345	-1.2703833774464	0
287.59960738359	-0.94626727810042	0
366.875	-4	0
367.81550750114	-4.8992230971021	0
368.4375	-4	0
281.46887725838	-0.952721534074	0
282.03125	0	0
281.015625	0	0
280	0	0
280.39693858995	-0.88892544758191	0
350.65672363215	-6.9308214117629	0
351.98287838049	-7.0241340972017	0
351.32215866858	-5.9481901378182	0
282.42250010308	-0.82491880625552	0
311.41823775575	-4.7704103245043	0
310.18558704021	-5.1596948384419	0
311.49381876306	-5.6772246614796	0
286.53579450805	-1.3173446586548	0
286.09375	0	0
285.36259461631	-1.0450092271091	0
354.85987295812	-4.8137608914302	0
355.69155648649	-4.8127568600125	0
355.15625	-4	0
287.109375	0	0
284.46770316684	-0.84050465871951	0
285.078125	0	0
319.03946993658	-1.2296877582801	0
319.609375	0	0
318.59375	0	0
286.50524139653	-10.566374608421	0
285.37726564816	-10.623271667497	0
286.05236085016	-11.514504020962	0
288.125	0	0
295.78125	-4	0
295.40578500297	-4.7665241623714	0
291.171875	0	0
290.15625	0	0
290.71761225457	-1.2830341810474	0
291.87276597204	-1.0154485232342	0
300.3125	0	0
301.05243366303	-1.4072929467503	0
301.328125	0	0
289.66683746678	-0.93239714120065	0
306.40625	0	0
306.93186779665	-1.1964698503333	0
307.421875	0	0
356.4604132275	-1.4385526979774	0
357.1875	0	0
356.171875	0	0
301.86811503677	-2.5503649039887	0
302.32809447034	-1.664465308466	0
369.375	0	0
369.85212427245	-1.3720475164162	0
370.390625	0	0
293.78159676859	-1.1223750851273	0
294.21875	0	0
293.203125	0	0
292.1875	0	0
329.375	-4	0
330.37746500343	-5.0713333911853	0
330.9375	-4	0
294.77576886306	-0.81195944516695	0
295.234375	0	0
381.5625	0	0
382.19755093082	-1.3405127331197	0
382.578125	0	0
351.94562086809	-4.9991585566295	0
353.24491053952	-5.1734011394914	0
352.8125	-4	0
295.71359444086	-0.95114896719654	0
403.00061662985	-9.1878521384715	0
403.68687437918	-10.05808471809	0
404.2966990142	-8.9229783515635	0
298.71404579393	-1.8098437319458	0
299.68740076424	-1.0339259283522	0
298.77946675612	-0.74573236194281	0
294.92950494961	-1.92661394827	0
350.078125	0	0
350.58017478686	-1.3367304754959	0
351.09375	0	0
331.796875	0	0
332.19068424886	-1.2994807861023	0
332.8125	0	0
312.1875	-4	0
310.625	-4	0
298.28125	0	0
299.296875	0	0
326.91018500894	-4.976802981999	0
325.65785383285	-4.9742209380231	0
326.25608562367	-5.8675807846009	0
301.99207108045	-0.78459743351429	0
305.69669627631	-2.0850267182254	0
306.98785846741	-2.5030995742915	0
312.76050029304	-1.4211135536996	0
313.515625	0	0
312.5	0	0
370	-4	0
369.06088690275	-4.8746145384386	0
370.17875320053	-4.8641372944272	0
302.88045125557	-0.85819679584791	0
302.34375	0	0
396.45894610901	-5.7145411579008	0
395.96768324966	-4.618388804369	0
395.40399663671	-5.7366729744889	0
304.93628140713	-0.95955410287903	0
305.87317809444	-0.85022664612971	0
305.390625	0	0
312.47229046448	-5.9791161601061	0
312.6070566332	-5.0287539868947	0
387.65625	0	0
388.08206138996	-1.2586652966085	0
388.671875	0	0
303.88344899184	-0.91968928872201	0
303.359375	0	0
375.46875	0	0
376.10574514513	-1.1753366968261	0
376.484375	0	0
325.703125	0	0
326.16196970992	-1.2581153271403	0
326.71875	0	0
307.97298549384	-0.8477126071853	0
362.63810739414	-1.4027050721726	0
363.28125	0	0
362.265625	0	0
342.96875	0	0
342.43195084659	-0.86589652283408	0
343.38459924627	-0.82667701336066	0
373.02138010863	-6.821715635421	0
372.07649938088	-6.9883020832017	0
372.47119717388	-7.9553211347726	0
337.890625	0	0
338.41286396228	-1.1871357200026	0
338.90625	0	0
308.4375	0	0
343.60027906835	-2.6034888361227	0
344.57928438406	-3.0093779570962	0
311.40024732242	-1.6785701149972	0
311.82268512633	-0.79785878016754	0
308.92048576671	-0.98267933948801	0
284.41970615433	-1.9973208928939	0
285.55509174574	-2.1028413702753	0
286.40968945282	-2.9848116795472	0
282.13695612389	-1.9728235417775	0
283.4083076065	-1.1521237123851	0
313.9862196013	-0.93813860791116	0
314.53125	0	0
309.97130377407	-0.92580814491756	0
309.453125	0	0
317.14676796222	-0.91705832926217	0
317.578125	0	0
316.5625	0	0
314.12888811295	-2.2016456624909	0
291.6543863528	-2.0272704206129	0
290.83035847888	-2.8836127355824	0
352.91602253366	-10.134485533113	0
352.19735469429	-9.0322003529117	0
351.70283085736	-10.320620405053	0
327.07929846623	-2.1489297951	0
327.015849218	-3.1308642495352	0
327.85059520895	-2.9236147282085	0
289.140625	0	0
300.89981720767	-2.9759326975783	0
320.26098415413	-1.00226801807	0
320.625	0	0
307.789272931	-3.1595063600271	0
308.13234390931	-1.9859087817819	0
325.00066344735	-0.99062793561466	0
325.27302683146	-1.9469962102194	0
323.125	-4	0
323.99310448701	-3.1130839651538	0
323.04851302677	-2.7059586012172	0
355.15625	0	0
355.5027884441	-0.80255424451609	0
326.25	-4	0
327.8125	-4	0
314.96711838561	-1.0323033001413	0
318.05005835823	-0.78877421647846	0
368.64483320079	-1.0123385044436	0
368.359375	0	0
324.13166694583	-0.77042235927407	0
324.6875	0	0
292.7594785566	-0.81761725708873	0
327.33538839146	-1.0495020137095	0
328.34373232232	-0.93169954576603	0
328.75	0	0
327.734375	0	0
374.453125	0	0
373.90336536992	-0.99662692469438	0
374.93155748809	-1.0252705878641	0
381.01983735961	-0.85354121262119	0
380.546875	0	0
299.91823274161	-2.2583405022596	0
330.19794103332	-0.75301294825561	0
331.04598502844	-0.98733249417209	0
330.78125	0	0
333.39671037977	-1.0705958395465	0
296.25	0	0
383.0225057768	-2.524723627037	0
381.82231810055	-2.9060470074484	0
292.74757841561	-1.9177316724895	0
304.16640574164	-7.005306811656	0
304.22809051783	-5.9930209470765	0
303.2563197259	-6.5601398195801	0
333.828125	0	0
334.4144886259	-0.9314831682955	0
336.875	0	0
336.4321252692	-0.91036497228082	0
337.36443442591	-0.80443965449245	0
334.84375	0	0
335.89305097753	-1.8530837120881	0
337.22989477039	-1.9046950011967	0
311.484375	0	0
310.94543225169	-0.84704234646165	0
339.57365616978	-0.95142431788953	0
339.921875	0	0
340.50604701261	-0.83253679682792	0
340.9375	0	0
387.07049881964	-0.83656129053722	0
386.640625	0	0
382.93685533341	-17.115792535038	0
381.97487337643	-17.238437036181	0
382.40524855336	-18.111732905637	0
335.39625048694	-0.8945013109977	0
349.46503819465	-1.0494151221057	0
349.0625	0	0
354.60792156995	-0.84643469058635	0
354.140625	0	0
329.41341813253	-6.1166373385165	0
330.40105762282	-7.2110051105709	0
330.66044375945	-6.1671322794085	0
395.18456186455	-1.2112893956934	0
394.18638513584	-0.84902352307822	0
393.99659798613	-1.9734294154463	0
345.60818190735	-0.80260842102148	0
346.015625	0	0
379.0206774405	-0.91728925907949	0
380.05907909793	-0.931247134766	0
379.53125	0	0
361.25	0	0
361.62465282936	-0.79024584248235	0
350.67236874442	-5.0001160200219	0
348.47960196066	-0.95558219643046	0
347.49900171902	-0.89481185672195	0
347.03125	0	0
346.52151195541	-0.85111642214315	0
360.73425951357	-0.842297131085	0
360.234375	0	0
359.75038476908	-0.93798271471133	0
329.33826083613	-0.87982065682279	0
329.765625	0	0
311.74889590947	-2.7599086442202	0
312.91658977428	-2.8792650421677	0
351.74235302205	-1.0519367120935	0
321.14194584921	-0.76092132586178	0
321.640625	0	0
352.69214747466	-0.88500059672257	0
352.109375	0	0
318.81766372374	-2.6958273079138	0
320.0624506565	-2.2657408577226	0
355.11344232618	-1.7038619940214	0
354.50332358789	-2.5609103393333	0
355.50489749204	-2.8523413084965	0
331.21984143449	-1.9463165784386	0
357.67670550335	-0.94651502774286	0
358.203125	0	0
330.0563309587	-1.876605305809	0
368.81026505725	-1.9837045460312	0
351.6130314032	-2.3702068280956	0
325.06344780027	-2.9281369304614	0
324.6875	-4	0
341.43579400187	-0.83520617486589	0
341.953125	0	0
361.24650763983	-1.6699656140439	0
371.46106457214	-1.7880542190635	0
371.91665219327	-0.93841520090926	0
370.96313168768	-0.98261900682081	0
358.67387727579	-1.0388096125026	0
359.21875	0	0
345.51623074583	-2.565260989825	0
407.3680055203	-1.8558220909976	0
406.4821413472	-1.235533723521	0
406.60207979165	-2.7897875311742	0
363.82360702711	-0.90107819047256	0
364.296875	0	0
364.80578842115	-0.9769966116454	0
372.89240132069	-0.96674400833434	0
372.421875	0	0
370.56839356395	-5.7072952055234	0
369.96500043671	-6.6167151291286	0
371.16922622587	-6.5732359050971	0
350.33038884711	-2.7799031848385	0
364.11384555695	-2.0611632363661	0
365.3125	0	0
367.34375	0	0
367.78739457331	-0.76980698343645	0
369.47564707304	-2.8047211426978	0
368.3789342761	-2.761622414063	0
371.40625	0	0
375.34039144779	-1.9318291984467	0
374.41392728334	-1.975401279667	0
380.68569797623	-1.9714566058449	0
363.07944241847	-2.9088847116085	0
361.7075449582	-2.7610009452676	0
377.07915796992	-0.79593995555449	0
356.65219754168	-2.9043165406842	0
390.16430103795	-0.75408813729143	0
390.703125	0	0
389.6875	0	0
379.49458375687	-1.8318033621357	0
386.83630147285	-1.9891148588406	0
386.14988999571	-0.93950986741044	0
377.5	0	0
377.99105188716	-0.906496590844	0
394.18584901692	-3.0930971788814	0
395.10983181279	-2.6082937924763	0
393.75	0	0
393.25258882413	-0.99571101151871	0
402.46767109932	-2.0209522670544	0
403.47823276735	-1.2172624876182	0
402.41940649241	-0.90895285396883	0
383.59375	0	0
383.21306977755	-0.76831809193062	0
396.19139831529	-2.0200123243835	0
397.15272297211	-2.6945132558598	0
397.26443497592	-1.2468572673135	0
378.515625	0	0
406.953125	0	0
405.9375	0	0
385.78852469365	-13.252634907257	0
386.3233945128	-12.112597224151	0
385.2160291268	-12.085699580006	0
384.609375	0	0
384.11527724156	-0.85197126925808	0
385.11880851651	-0.91569120199222	0
404.921875	0	0
405.3301164642	-0.9827775827968	0
347.88857411183	-1.8166094761113	0
389.29390349185	-0.98168574552735	0
390.0886079788	-1.6926901961283	0
[...]
CELL_DATA 7354
SCALARS Coverage double 1
LOOKUP_TABLE default
0.50034416915333 1.6025622614259 0.51675203481463 0.45629255356206 1.0504925944505 0.67104565296204 1.5087973835722 1.3543124505096 0.46970254437635 0.89816733213297 0.58239479557083 1.2870899704401 0.61029519457953 1.5607510072929 1.2169937787351 1.6397836796528 0.1745322573823 1.7114072408962 0.6099667703561 1.646328235716 1.3240183222397 1.5714251339694 1.1718029862282 1.6013094695294 1.3139180185437 1.649256608225 1.1077718693986 1.5472486277913 1.6157561221349 1.6051276552777 0.70414359213603 1.19597876121 1.6581589794321 1.6594376762874 0.58695555456934 1.3867707767564 0.23904435516149 1.1923570626991 1.0680413728203 1.623386113978 1.1579264449384 1.6944538725056 0.69416745838441 1.6003595660258 0.57998104325899 1.3467031791852 0.90430934509116 1.5997262325872 0.61740526594176 1.1903544667916 0.43107672247488 1.3608896399556 0.55154172321451 1.6085573807445 1.2607116582135 1.6161772090842 1.7363532933024 1.6109574294186 1.3310044346641 1.6067810368711 1.2211299478872 0.45379350144002 1.6006986383379 1.6569888935792 0.73687094824626 1.0601781652178 1.1726744591577 1.6745502934713 0.86082183386559 0.82840248476479 0.97997865477613 1.6552122768288 1.2789192146168 1.6685072858704 1.331046439111 1.1598723412498 1.6497261905904 1.0366777310966 0.78218443513072 0.24062742339553 0.66987932839362 1.600303698557 0.88128445380274 1.6474310867671 0.7300629874762 1.1053936010754 0.59504019946091 1.6110071385649 0.50781607061418 1.6227259247277 1.3004348667783 1.6547024872939 1.1921842249788 1.6847080249992 1.6118246841688 1.2221516386711 1.2496963664233 1.152529020075 1.6384597753693 1.2380027637629 1.7241832412862 1.3439993881078 1.0038519140903 1.3422926995514 1.1652590976485 1.6327423756767 1.2509713638319 0.87465553838408 1.6215517429544 1.0512943882204 0.45911557434106 1.2471293375467 1.2120231400678 1.5724982988306 0.9765995354869 1.5892086970868 1.3894229999475 1.1943102895017 1.1495016046173 1.3853370547645 1.6662355024866 1.618924451382 1.6450299710222 -0.25627213405852 1.1978058838198 1.664634420128 1.7343734423508 1.6290327786692 1.3109880543721 1.6729935254032 0.50562324078058 1.5641723049159 1.0915636709086 1.6480605660889 1.6673262328645 1.2551562013959 1.1297312711582 1.6214151272875 0.58533972328992 1.665797475114 1.2131204378514 1.2220629736222 1.2993143148201 1.4163997766991 1.3643336627629 0.77242928791185 1.1703513094609 1.684607017321 1.3746675072629 1.6188706212618 1.2966705542594 0.84411103622363 0.77574073686483 1.1019479294977 1.1188385477346 1.589827657121 1.015287225834 1.0429183966581 1.2305273650052 1.0004433283007 0.51061110871316 1.0491742467042 1.4079450156751 1.3744751679775 1.0939096477291 1.3381083560716 1.149487399103 1.1725296170237 0.75437582396609 0.79414878790799 1.0912815736373 1.5979256710553 1.3425946993164 1.3491873097564 1.2998154016534 1.3246054861806 0.4802519039482 0.80304539712738 1.2596238571159 1.0172380268124 1.7067237337076 1.6480839615973 1.1481790985678 0.62704647616554 1.2786791604299 1.6545840021475 0.96976661675359 1.6158435602771 1.1321520630227 1.0415599530387 1.1476123666115 1.0919578321749 1.2586726252362 0.80416237218342 1.3619952638434 0.76127715779688 1.1423972805981 1.6562211772226 1.0112174869829 1.2269202771212 1.1305305682146 1.6253977228638 0.69451922469517 1.190331284611 1.3228076750057 1.0284105056649 1.6654164611543 1.24822907709 0.81162122564277 1.5681198239643 1.1552351586743 1.6206755301202 -0.015185823708403 1.6588593692397 1.3840913454019 1.3232108493484 1.6389649552058 1.1847767698444 1.6340093777047 0.86716850632592 1.187522118174 1.6140114856457 1.5852694194444 1.1068620237144 1.6583471566557 1.3024295587729 1.0497515237859 1.2026242187447 1.6203864997956 1.5178328975332 1.6458901086431 1.6916985715467 1.6519756633693 1.1837967661692 1.0880875569895 1.1374531541389 1.6695781339329 0.99996616451448 1.206471929808 1.6816562322349 1.382177199715 1.6366300590998 1.5127899036092 1.3160508430271 1.0351478167593 1.0728745907352 1.6875132526445 1.3321652519667 1.2190309047814 1.650026459103 0.60129500529472 1.0362828951897 1.5847558223789 1.2072982652606 1.1763325627672 1.0089673976676 1.1731997509406 1.6639316951303 1.2117810413039 1.0498297651126 0.98090475166565 1.6651826062853 0.1277720988919 1.3643717482229 1.155960866223 1.2031592791557 0.83541044875308 1.5358766763083 1.7110403364288 1.6446918961723 1.0021250285214 0.94554665066263 1.6302867208292 1.2023923265346 1.7217957774243 1.185500875851 0.63553183320486 1.2758594706857 0.5948313372907 0.5904760644401 0.93986520395092 0.71631234484802 1.1566274095678 1.5974778179573 1.0616149067862 1.3266968753585 1.7122180187567 0.62666173652763 1.2707868992999 1.6542467406737 0.99032194002982 1.0746611692064 1.2126037681173 1.6733736342986 0.89244117034042 0.940359815507 0.97614203633061 0.78640868873931 1.3827706605421 1.6708392603694 1.0536971920442 1.6320384493238 0.99183658334422 1.3406954898457 0.98001481039358 1.0971883187623 0.55507384652854 1.7094181584482 0.69479122183199 0.94203976994943 0.96381011422645 1.6685502979035 0.59661837547767 0.78368697158181 0.96027434029413 0.64749545886134 1.162600510123 1.7265316504104 0.38162060276088 1.6045292270155 0.69619051903833 0.90057874999869 0.8833157012749 1.227600166124 1.1737346414293 1.0405999580637 1.3830777182951 0.50337646263855 1.6529268077684 1.1846954341598 0.87112508761814 1.0650955501084 1.6537944522276 1.0433527590257 1.340232608732 1.0213524272996 1.2161467914322 0.99985902718015 1.3408400562779 1.2049968000366 1.02926226671 0.96979689975976 0.73454295195773 0.63474137374689 1.6046886100511 1.586930441937 0.98441346160394 1.6793202520047 0.35161822094664 0.68106994016655 1.0470773386794 0.89725251289147 1.0572748388205 0.83686359237949 0.64232405915686 1.2028153663551 0.87097505496598 0.90966191001786 1.0669152121817 0.81674482963123 0.27193158816251 0.56080535260386 0.95008135001004 0.60336051542295 1.6353538155842 1.0127622585622 1.3752553679861 0.88180570441853 0.92542980662312 0.69604814293749 1.6532389573929 0.47969170577702 1.0855804275504 1.1427014800047 1.5847942248628 0.51676226074972 1.1722256003776 1.1432016931728 1.218734280162 0.61917854660071 1.0423596923691 0.64385100288667 1.6595614188332 1.5724076574976 0.53049612034642 0.62731756664793 1.1938040031542 0.96122948549732 1.6522569453802 0.73504418084427 1.0472736257084 0.71159591747821 1.0925484800248 1.0616163148162 1.6541865162657 0.4509088836154 0.90482692237046 0.98082193907858 1.5979809691755 0.61028641797005 1.1144191710116 1.0440043412097 0.51235838806715 0.9588256707224 1.0956218800431 1.143113759681 1.664303942712 0.62665463152298 1.710198381446 0.62537881448658 0.59735778187282 1.1778415922287 1.0798844242765 0.61727052611671 1.6604609451334 0.43802261118413 0.61423739784896 0.53907245890112 1.2012817732364 0.73323292805355 1.2305263157196 1.668957375565 0.51639984695932 1.0643201879611 1.3287573960177 1.0247255892359 0.97913821366051 1.3442787980792 0.74944676260469 0.70212457200637 0.75552010594596 0.99000014094446 0.046121556610396 0.64995354750034 1.2643198265005 0.82481253857243 1.2308644148322 1.2187091408188 1.0000211438705 0.54398818784571 1.2088175670231 0.73060910679918 0.45573363650577 0.81481655274716 1.0129857919874 0.63346935824082 1.0991808177624 0.65312684208816 1.6457409751736 1.1161088390922 0.80895878671574 0.7602552717619 0.70939957803306 0.64601580843831 1.6177642619243 1.0815786535592 0.61524759329935 0.54151051251117 0.58698466450216 0.63037415467549 1.2156406970182 1.1606616580552 1.0080265705227 0.53475376060244 1.6282807051169 0.92014989754755 1.1401632515419 0.61217149313049 1.0067461564227 0.52504488130717 1.7215263418536 0.99464528331606 0.53505890010131 0.64542969680244 0.62905999935276 0.55913976125438 1.0071368319256 1.1650486452842 1.2870342883002 0.98718661616652 0.54519996222214 0.57848093458149 1.2397088685239 1.3974634076412 0.53935044955616 0.46684178810446 0.97605766453337 0.5961393046688 1.0200059941438 1.391937783339 1.1592271370789 1.0118359902621 0.53636901408976 0.60878782632011 0.52783974003 0.62116933401326 0.58291557854104 0.81272085765563 1.0027371492945 1.3748034054069 0.9392734744976 1.1824857802232 0.97498437824367 1.1936569743444 0.58590441390003 1.1176571615626 1.2309423940052 0.51662916919181 0.5769479009477 0.42555972670149 1.2126933928603 1.1499590314252 0.98276006319018 0.58530506735488 1.1621837347713 0.52646792095835 0.78318860688094 1.2251790076255 0.62281568287982 0.767297098493 0.94535362266983 0.94156384038403 0.98282772926241 0.60544432170241 1.6362758859622 0.50728232570371 1.1756989068295 1.1882395539418 1.0498600735203 0.74514759289298 1.0039937758027 1.1437352202848 0.61078354178696 1.1615074431051 1.1112210242325 0.62649185464781 0.72904761887935 1.0627097762975 1.055251257693 1.1546949969867 0.17750812745574 0.8206492273758 0.89305362120331 0.84065027546563 1.6381734812618 0.95307830837352 0.95598849991778 1.1680721826977 1.1418560804383 0.46315457286128 0.85424861731366 0.59012546913586 0.81922107893531 0.58951376066405 0.6322841406778 0.74210897809491 0.68446749511184 0.66643908108697 0.51093746010736 0.80767149292151 0.3364110990257 0.56877758512936 0.63046952174822 0.65686052317738 1.1298627461772 0.46995744712801 0.37192100888369 1.1598612053009 0.94217556245718 1.1342357257376 0.76751772299578 0.54010425072384 1.1014211313792 0.64403278323392 1.1956821628005 0.92882264249322 0.97880006258949 0.76764124518537 0.85240044380112 1.2366411571847 0.60465240443047 1.1204049788468 0.64082204731954 1.1978806394783 0.77778346267288 0.8943672424935 0.5786133394461 1.2054443436828 0.56096879030802 1.1019024159004 1.0596011731725 0.60356655476475 0.89760588134776 1.1660532972027 1.0395866036161 0.97134472612784 0.64845778269652 0.65917386234879 0.94219723017407 1.1389976881343 0.68179727900941 1.2295388848736 0.6422757363431 0.51733111768191 0.62821910707838 0.4754779183335 1.0183218331411 0.93792245106795 1.1145754012272 0.7515096277699 0.86502089477386 0.75862425866217 0.81311522330679 1.1637540122873 0.77439364514633 1.2351733631762 1.1205657265737 0.63567010942042 0.68097935927522 1.2075167804401 0.63366335767216 0.7191284492375 1.1510712905274 0.85364801400024 0.8924288454888 0.60099885490063 0.70758247888096 1.1022252134918 0.71733923118652 0.70299971461229 0.66331060939177 0.78167988211878 0.795620777272 0.80819626565949 0.61773690836425 1.1656769438635 0.64286785568655 1.0268805611466 0.67415642846407 0.88776479501312 0.55124746533978 0.56583138773102 1.1224762211041 1.0464615097229 1.2232485504642 0.91407483069133 1.0026882875225 0.75548561254812 0.81155311453152 0.6700480947246 0.84858619131004 1.1179842176659 0.60162297934301 1.2012914492913 0.99815838190512 0.5911822219547 0.90580289930699 1.374305948364 0.98965831542854 0.70940753760697 1.0199857119734 1.5949717307278 1.0287536309496 0.55238286481636 0.52550130528571 1.3606541470712 0.98768562141864 1.09195024757 0.55534221888208 1.1196300853426 0.60263943962042 0.63212949666666 0.65424874192962 0.50561933692158 0.46769467736269 0.54945405571238 0.58157366710364 0.53682312097277 0.66031434257481 0.60045855730976 0.5233006860318 0.39125468945338 -0.17032341216305 -0.046449964117137 0.83854732015621 0.55611198046086 0.61794475727906 0.47985612202464 0.60215177695375 0.47450869302661 0.77725379311017 0.65249723237419 0.6409899077309 1.0260564634761 0.7920446063405 1.1904385451005 1.2360857776992 0.63504189820896 0.78115190541867 0.54652920056054 0.9929065324593 0.98083926894161 1.1242442727091 0.52607868181099 0.72681043943463 1.2026042993236 0.93527577003628 1.041981920329 0.7563232064896 0.90793006369219 0.81416753176515 0.58023640737623 0.80383552508346 0.96022137229974 0.7937217460009 0.68465862803599 0.65556923697257 0.64227426695266 0.4631099444572 0.68480514291709 0.65790608875031 0.77156533531932 0.4788991218988 0.49285809326984 0.56614121520958 0.42237147015285 0.79795771757915 0.52903185169944 0.55769648844205 0.45334905340867 0.56591110104282 0.78905647781073 0.86611836424187 0.42643966082998 0.64338206693771 0.55357409162484 1.0234212512483 0.87469525475982 0.47365939675834 0.82060395111804 0.7766404011576 0.70244323077399 0.6452124875957 0.51003936582898 0.70237266864174 0.83777317924547 0.24944848367731 0.5453503619427 0.82678305416114 0.75752048260988 0.67468592017345 0.84541245146835 0.5283240627171 0.9303349913646 0.71399283325234 0.70755583934086 0.87076875240268 0.85340732245633 0.82829252551792 0.58849769784887 0.50871805908077 0.90562837878741 0.5780820881025 1.0060705372131 0.79274326503342 0.43243673391335 0.86246628141091 0.71484129156271 0.67109765833155 0.60034933942207 0.69657351517251 0.71370564979131 0.69838274369691 0.0421838155746 0.55475085172128 0.44682628418948 0.42437698053723 -0.36831105488786 0.65156241294459 0.45634316482837 0.50542148169786 0.61298838825651 0.82492509933943 0.70763132189721 0.51001956957253 0.9152981785278 0.49216465359241 0.4675399879792 0.83716493747791 0.50521256286714 0.67179715171053 0.83081042923577 0.60408258311246 0.63512890977371 0.5259252429862 0.67887952100908 0.59172081252992 0.71494790827049 0.6955410512649 0.72207063148754 0.54033455893277 0.68196267670807 0.67170322380612 0.73498012962361 0.53894302568531 0.66913391731859 0.7993025657643 0.84446147072934 0.57280214407693 0.60282016352924 0.95385807607177 1.1961662557127 1.0406173643283 0.72216729903914 0.62448608319655 0.44253405170788 0.53124197889001 0.66508218324338 1.1090284421285 0.84408499185636 0.57473944275511 0.53923086542097 0.54248666391924 0.56375988544303 -0.099684827132478 0.61446976751096 0.41929027282856 0.51887788810786 0.77503006270314 1.0365574515738 0.60828084429133 0.85418263904805 0.49738167086477 0.57397635826712 0.53101572348194 0.83957821747221 0.57965346012343 0.88191378966558 0.50022733689895 0.50193168582013 0.59847904912342 0.70776094827977 0.87653243493399 0.53903012439969 0.69676966236657 0.58299133310545 0.53207447729632 0.85641493619199 0.86127361090273 0.71489881517135 0.63725732836588 0.47921026948904 0.35545935942012 0.45448824283505 0.320172095131 0.47409627065776 0.53838619367328 0.50520038930233 0.57846856818239 0.67765619855143 0.50011370461715 0.5299286431759 0.40876670291693 0.53239484217707 0.72787703528038 0.61665280710814 0.91294251860508 0.61011800354554 0.58443037246993 0.6782504846895 0.50823526829853 0.80043260586368 0.63749820854911 0.58206288498492 0.41831027030874 0.53949723784855 0.43728533342133 0.38191404375024 0.43118902010526 0.52877459840086 0.36478459998374 0.44475601805731 0.31789843280047 0.40420813662667 0.33793225087726 0.18523231482175 0.33404724644924 0.53172675808197 0.70392966953162 0.45058882225847 -0.044834388247031 0.56871736010455 0.71219336698724 0.75760600411493 0.55713895044132 0.59159972269936 0.50843271548681 0.67727151860496 0.56207192519136 0.93299075137119 0.52849517171759 0.55145613803199 0.61654863916355 1.0531511974821 1.2053195033169 0.5589981992634 0.68511617174195 0.61104350065995 0.73120770667169 0.62628342996836 0.50209987370455 0.49153355739875 0.61869602329943 0.68671404224203 0.54027897396247 0.62410529366167 0.68016416736101 0.72047623079781 0.55431641896417 0.93061964962158 0.50808972871883 0.641285702292 0.82462684722531 0.55942060594668 0.65152705756818 0.58413902319327 0.63604466948552 0.67217585500701 0.69460908991512 0.55696417715314 0.64228340038293 0.60387781843154 0.59199629082431 0.59259506044074 0.54342539850276 0.44361073428169 0.64824077354775 0.84002075330327 0.54981301307685 0.64759055164683 0.62111733947111 0.49820368476587 0.49132626216055 0.49549334571581 0.48044520648449 0.31661164111601 0.30184392875174 0.39292334325213 0.60560125640274 0.36777005490056 0.40786274249497 0.49166987047925 0.56511554202351 0.47409113722653 0.53100978460685 0.45230254610868 0.53303818889495 0.4456295282778 0.47438072633828 0.46583000193999 0.32206339276568 0.40897272162404 0.46717383857155 0.56099226170337 0.63968765462449 0.33503678258705 0.78358964761353 0.70829625438666 0.53748074349954 0.60017390096583 0.42754284550169 0.61056659028391 0.55443287901397 0.43946539545757 0.43851975831754 0.34770996582433 0.3266735667632 0.39563143718008 0.45670310828331 0.66223405994938 0.57155869844326 0.50410773981925 0.65061235835298 0.28567421067686 0.37106726221796 0.30070008841725 0.19784804507566 0.49869303963474 0.27238944552027 0.34767296114181 0.19362993434495 0.66935382109208 0.28513911775924 0.076243613903712 0.19330574496615 0.21611995788895 0.20984826442359 -0.12131668332565 0.30728921477826 -0.028516270922703 0.27320160706447 0.2557193503518 0.27431350821691 0.42443696910155 0.40559762382537 0.21419184365386 0.36629111914986 0.025473170709085 -0.089033697231298 0.082035125668358 0.27862518344062 0.29880504381454 0.61725691789151 0.57844783205072 0.66983718732436 0.568085655511 0.72194878032711 0.70850228477894 0.54055446497505 0.57473689738812 0.57769400936188 0.51570261857676 0.56742556436274 0.50289737863582 0.50657900736063 0.46428450516452 0.42160474821849 0.57224929954251 0.49674791424997 0.47482913334597 0.21089393674876 0.54389476607246 0.66567002217633 0.52114887262007 0.5083267237639 0.3391971070606 0.35357210448189 0.36184395881806 0.32376786096146 0.36647027503734 0.43975527999999 0.39644390311498 0.32187174971004 0.32738162176219 0.48878815405939 0.38869667273398 0.35653606512246 0.39225358380129 0.38850156083892 0.42373966589977 0.43051394071075 0.3748360299052 0.28098232236691 0.31320930776142 0.2353834133791 0.31988567984965 0.33278829119016 0.46185923396614 0.39684683084453 0.44883226722304 0.22860708776567 0.25787271067723 0.3192616876376 0.239511589409 0.23265507547336 0.51775292473759 0.68831222274974 0.58994217184344 0.19982286068857 0.59477822630415 0.62181383708488 0.47974835779954 0.14257227844508 0.43035732710458 0.45008161880641 0.5694883702038 0.17995748505847 0.42395914206467 0.42631379026246 0.17127678024533 0.2366234565158 0.2893139637932 0.26314400832912 0.28348255944683 0.0086916550824903 0.45995144012543 0.46540396504572 0.61888942243807 0.4620839807291 0.50747751873202 0.49602871061017 0.6193022710744 0.31595565039584 0.42460139233209 0.39414494782472 0.43194638324225 0.24128495580065 0.47247487065573 0.55558561575228 0.39668314004858 0.33864142796159 0.47035804279715 0.28976914615692 0.30869941381353 0.27535293192247 0.30537176867648 0.27769481684482 0.23223618782833 0.20780497740605 0.23409409230684 0.051463451605432 0.22848981603304 0.22683640595083 0.22934273060957 -0.51994841268832 0.15109124895406 0.12667295430563 0.22083374801088 0.17935943580091 0.20912879174403 0.19527341263564 -0.12981175862032 -0.26043343714331 0.1475718317528 0.18358173423502 0.15917553904542 0.23068690522669 -0.12011229863994 -0.12371673828958 0.23813249950261 0.12991435815636 0.11171716221652 0.17089511946561 0.14480055252726 0.25907846597134 0.12728083467933 0.16471404604506 0.1312822087105 0.018472676351077 0.11524304649679 0.24637375474287 -0.12057846300965 0.0051363795792938 0.037655343781862 0.052313636757136 -0.18500573078204 0.025114026670708 0.11690479318574 0.25486362729212 -0.043482565241753 -0.11227366580329 -0.21166394545666 -0.39275301815041 -0.087573321524502 -0.23064177408739 -0.080086762561541 -0.25199744504414 -0.12400328648053 -0.13652752574185 -0.21888463766141 -0.18598390667736 -0.3507459435867 -0.3414995092554 -0.33353980893543 -0.19916250072873 -0.55826853378602 -0.24490371114399 -0.030258795081782 -0.3063442491673 1.00554050808 -0.20785193546985 -0.32611447391134 -0.35250105438406 0.098369704047967 0.23677262902377 -0.19314738384068 0.51285632610603 -0.16551050191353 0.51612252224279 0.48191480354566 0.44415609462888 0.49367323234157 0.50264613160744 0.26940844084285 0.44516158031048 0.53704652946985 0.34511271523704 0.42213033046155 0.40436421634879 0.50733543896706 0.29235878267236 0.30958756114721 0.30611732263758 0.33584596152223 -0.0068740520605129 0.045476247571707 -0.22545371996615 0.61295291252632 0.36317139856287 0.46125243605