# vtk DataFile Version 3.0
d-2__ created by libgimli-v1.5.0-1-g5991b6ac
ASCII
DATASET UNSTRUCTURED_GRID
POINTS 3056 double
16.047984885364	9.2005108665658	0
16.227640130622	9.31797770521	0
16.052808675398	9.4151062914457	0
9.6856707273838	12.779965388042	0
9.5840448320983	13.008863982168	0
9.459889155087	12.888340064957	0
9.4017034496321	12.989518397958	0
9.4966291044861	13.057428275285	0
9.409213376874	13.105992568403	0
6.9615730037337	14.465792775704	0
6.8666473488796	14.397882898376	0
6.9945996683525	14.319328169198	0
10.283370652996	12.620349637225	0
9.9337077425469	12.814606809696	0
10.035333637832	12.585708215571	0
10.370786380608	12.571785344107	0
10.246630703596	12.451261426896	0
3.2	14.888006064741	0
3.3935321886838	14.815842352641	0
3.3	15	0
10.363276453366	12.455311173661	0
3.05	14.894536113346	0
2.95	14.834347813918	0
3.0997032337695	14.698789777549	0
22.54986393823	5.4610590293129	0
22.601478319067	5.6563101371606	0
22.484832569298	5.6522603903955	0
7.8357302798552	13.980149844525	0
7.7483145522431	14.028714137643	0
7.7115746028439	13.859625927314	0
8.7098875559768	13.494506913346	0
8.6224718283646	13.543071206464	0
8.5857318789655	13.373982996136	0
21.698091020789	6.0893390284563	0
21.734830970188	6.2584272387846	0
21.639905315334	6.1905173614571	0
4.9002967662305	14.698789777549	0
5.05	14.834347813918	0
4.95	14.894536113346	0
8.5275461735105	13.475161329137	0
8.5350561007525	13.591635499582	0
23.708017310135	5.0679061559452	0
23.57570494199	5.2584272387846	0
23.492391392804	5.1534065041647	0
7.9373561751407	13.751251250399	0
5	15	0
4.9	15	0
25.208739718026	4.888006064741	0
25.308739718026	5	0
25.108739718026	5	0
6.7500015991102	14.393833151611	0
6.8150329680421	14.202631790528	0
7.6608988246309	14.077278430761	0
7.653388897389	13.960804260315	0
12.90584248136	11.163420843689	0
12.869102531961	10.99433263336	0
12.993258208972	11.114856550571	0
14.304494123155	10.386392153803	0
14.40612001844	10.157493559677	0
14.654157033603	10.192134981332	0
11.237433729487	11.969668242483	0
11.18581934865	11.774417134635	0
11.36538604896	11.891113513304	0
11.120787979718	11.965618495718	0
11.885664010266	11.385614544848	0
12.082360983452	11.431411271421	0
12.024175277997	11.532589604422	0
13.080673936584	11.066292257453	0
12.98574828173	10.998382380126	0
13.867415485094	10.629213619392	0
13.77248983024	10.561303742065	0
13.830675535695	10.460125409064	0
10.909490913954	12.100065284392	0
10.844762499738	11.765076855645	0
12.934133900893	10.803131272278	0
3.6	14.810067208388	0
3.7	15	0
3.5	15	0
12.657805466197	11.128779422035	0
12.556179570912	11.35767801616	0
11.244943656729	12.086142412928	0
11.157527929117	12.134706706046	0
1.3	15	0
1.2	14.888006064741	0
1.4	14.810067208388	0
1.9	15	0
1.5	15	0
1.7	14.849260526121	0
12.119100932851	11.60049948175	0
2	15	0
2.05	14.894536113346	0
2.1	15	0
12.031685205239	11.649063774867	0
1.0997032337695	14.698789777549	0
1.05	14.894536113346	0
0.95	14.834347813918	0
11.332359384341	12.03757811981	0
5.7	14.849260526121	0
5.5	15	0
5.503868896942	14.598288840263	0
4.064468339761	12.492321883392	0
3.9817116885018	12.918420923089	0
3.7670358212135	12.67328000924	0
13.779999757482	10.67777791251	0
25.602637769837	4.524993056905	0
25.708739718026	4.8492605261212	0
25.458739718026	4.8343478139176	0
14.734062833973	10.027096517768	0
14.682448453136	9.8318454099206	0
14.862015153446	9.9485417885899	0
-0.24940646753892	14.834347813918	0
0.05	14.834347813918	0
0	15	0
15.804771660235	9.3804648697915	0
15.703145764949	9.6093634639172	0
15.578990087938	9.4888395467067	0
29.767533861964	4.3398980943704	0
29.508442951795	4.548348532907	0
29.495546029131	4.1485808085627	0
0.1	15	0
0.3	14.849260526121	0
27.458739718026	4.8945361133462	0
27.358739718026	4.8343478139176	0
27.508442951795	4.6987897775495	0
0.5	15	0
16.678928936356	8.8948219386129	0
16.4287009421	8.6628888321103	0
17.028591846805	8.7005647661415	0
1.1	15	0
1.95	14.834347813918	0
20.105956534257	6.4151422964054	0
20.247470662652	6.669867727517	0
19.925330046586	6.7203171073957	0
21.501394047603	6.0435423018831	0
24.087916739041	4.9470663132613	0
23.750549209437	4.5440302871062	0
2.3	15	0
2.2	14.888006064741	0
2.4	14.810067208388	0
26.308739718026	5	0
26.358739718026	4.8343478139176	0
26.408739718026	5	0
25.008739718026	4.8100672083876	0
24.908739718026	5	0
3	15	0
2.9	15	0
1	15	0
21.472583787351	6.4041201181382	0
21.297752332127	6.5012487043739	0
21.301387084399	6.2885606170178	0
19.199774869435	7.6667917392027	0
19.112359141823	7.7153560323205	0
19.104849214581	7.5988818618751	0
6.1791038580454	14.704649136022	0
6.0874157276122	14.951435706882	0
5.95	14.834347813918	0
6.8741572761215	14.514357068821	0
6.7867415485094	14.562921361939	0
16.402471585846	9.2208491189743	0
16.260666795241	9.171513098704	0
16.394961658604	9.1043749485289	0
6	15	0
28.922845333402	4.5823118347521	0
28.708739718026	4.8492605261212	0
28.602637769837	4.524993056905	0
4	15	0
3.95	14.894536113346	0
4.05	14.834347813918	0
28.108739718026	5	0
28.208739718026	4.888006064741	0
28.308739718026	5	0
7.136404458958	14.368664189468	0
7.1315806689246	14.154068764588	0
7.3112359141823	14.271535603232	0
23.945942620228	5.1435706882137	0
23.403806383266	4.93902940218	0
3.9	15	0
4.1	15	0
27.608739718026	4.888006064741	0
27.80227190671	4.8158423526409	0
27.708739718026	5	0
17.36404458958	8.6866418946778	0
17.356534662338	8.5701677242324	0
17.451460317192	8.6380776015599	0
5.3	14.849260526121	0
5.1	15	0
14.617417084204	10.023046771003	0
5.9	15	0
6.5387045333462	14.528279940285	0
14.998996154018	9.7832823839802	0
15.178651399276	9.9007492226244	0
15.003819944052	9.9978778088601	0
4.3	14.849260526121	0
27.508739718026	5	0
16.453147364059	9.0031966155281	0
16.256450390874	8.9573998889549	0
22.871235429146	5.6270914282524	0
22.72943063854	5.5777554079822	0
22.866411639112	5.4124960033725	0
21.122920876903	6.5983772906097	0
20.948089421678	6.6955058768454	0
20.981116086297	6.5490412703394	0
1.8827233936571	13.413209492963	0
1.635985724768	13.057931042977	0
2.0585343714792	13.116469985366	0
13.63397856251	10.414328682491	0
24.321832839145	4.8833962425865	0
24.408739718026	5	0
24.316180298466	5.0287141376427	0
24.708739718026	4.8492605261212	0
24.508739718026	5	0
24.458739718026	4.8343478139176	0
23.483145522431	5.2871413764274	0
9.2631921819019	12.842543338384	0
25.358739718026	4.8945361133462	0
25.408739718026	5	0
25.508739718026	5	0
12.206516660463	11.551935188632	0
3.1	15	0
12.308142555748	11.323036594506	0
24.679068235604	4.239790780138	0
25.006267059794	4.3425605622482	0
24.599747236054	4.5734506034563	0
22.521572518697	5.8213486007239	0
22.608988246309	5.772784307606	0
11.502367049532	11.725854108695	0
11.68202229479	11.843320947339	0
11.507190839566	11.940449533575	0
10.491228772839	12.376756444483	0
10.633033563444	12.426092464753	0
10.45820210822	12.523221050989	0
22.696403973921	5.7242200144881	0
23.395729794819	5.3357056695452	0
23.358989845419	5.1666174592169	0
2.8061019481889	14.524993056905	0
2.7	14.849260526121	0
26.108739718026	4.8492605261212	0
25.908739718026	5	0
0.9	15	0
26.458739718026	4.8945361133462	0
27.308739718026	5	0
27.408739718026	5	0
29.358739718026	4.8343478139176	0
29.408739718026	5	0
29.308739718026	5	0
26.508739718026	5	0
27.108739718026	4.8492605261212	0
27.214841666215	4.524993056905	0
28.408739718026	5	0
28.358739718026	4.8945361133462	0
28.458739718026	4.8343478139176	0
28.508739718026	5	0
21.923872593085	5.9809643515411	0
21.8222466978	6.2098629456668	0
26.708739718026	5	0
26.608739718026	4.888006064741	0
26.808739718026	4.8100672083876	0
28.908739718026	5	0
29.108739718026	4.8492605261212	0
14.056457107991	10.351750732149	0
13.954831212706	10.580649326274	0
29.658146185565	4.8343478139176	0
19.54461398985	7.2579391418513	0
19.724269235108	7.3754059804955	0
19.549437779884	7.4725345667312	0
21.647415242576	6.3069915319025	0
13.250681601775	10.754568246337	0
13.430336847033	10.872035084982	0
13.255505391809	10.969163671217	0
9.2674085862685	13.056656548133	0
16.489887313458	9.1722848258564	0
16.577303041071	9.1237205327386	0
17.626291772416	8.5409490153242	0
17.484486981811	8.491612995054	0
17.621467982383	8.3263535904443	0
21.284504402929	5.7190625713937	0
21.673644598829	5.7490312450385	0
17.276628861968	8.7352061877956	0
16.926965951519	8.9294633602671	0
17.239888912569	8.5661179774673	0
18.11404618869	8.0804750462887	0
17.902749122926	8.2149218349628	0
17.83802070871	7.8799334062158	0
18.238201865702	8.2009989634992	0
18.150786138089	8.249563256617	0
8.5612854570062	13.033675212718	0
9.0547266763919	13.085654315995	0
8.8115134512622	13.265608319221	0
14.741572761215	10.143570688214	0
9.2343819216497	13.203121154639	0
9.0595504664254	13.300249740875	0
9.4354427331278	12.548032281539	0
9.6630878033521	12.327490919146	0
15.615730037337	9.657927757035	0
15.520804382483	9.5900178797075	0
9.9706052236163	12.250719786823	0
14.828988488828	10.095006395096	0
15.528314309725	9.7064920501529	0
19.986516417945	7.2297131011419	0
19.949776468545	7.0606248908135	0
20.073932145557	7.181148808024	0
20.175558040842	6.9522502138984	0
25.309036484257	4.6987897775495	0
20.860673694066	6.7440701699633	0
20.853163766824	6.6275959995179	0
22.273535503534	5.7867071790697	0
22.208807089318	5.4517187503226	0
3.1317176073544	14.309812537406	0
20.736518017055	6.6235462527528	0
19.891590763091	7.1618032238144	0
19.899100690332	7.2782773942597	0
28.008739718026	4.8100672083876	0
27.908739718026	5	0
18.23069193846	8.0845247930538	0
28.309036484257	4.6987897775495	0
27.895939159663	4.4709363375124	0
28.265207298324	4.2898533340251	0
18.988203464812	7.59483211511	0
23.147692779655	5.301064247891	0
23.04606688437	5.5299628420167	0
19.024943414211	7.7639203254384	0
20.773257966454	6.7926344630811	0
20.423595056005	6.9868916355526	0
20.525220951291	6.7579930414269	0
18.325617593314	8.1524346703813	0
22.171909608248	6.0156057731953	0
18.358644257932	8.0059700638753	0
18.500449048538	8.0553060841456	0
13.113700601203	10.919827650947	0
18.179077557622	7.889273685206	0
[...]
CELL_DATA 5825
SCALARS Coverage double 1
LOOKUP_TABLE default
2.2938638862124 2.3073187477722 2.8546913861716 2.3168240518001 2.3202179105129 2.8485745041738 2.1416617381861 2.2883152936583 1.8620283864629 1.8954456851223 2.7599232877964 2.7902536120696 2.2707472070099 1.8908113091942 2.8315684680749 2.3113852048216 2.2565264347994 2.7829415904371 2.3961570839111 2.4174833886743 2.2119009949262 1.9079838221852 2.8016265481779 2.8841029558969 2.3507108026402 2.21300421209 2.0356785619877 2.0479038611486 2.9129704060734 2.4375242903286 2.1253148082069 2.3563463752921 2.0572755728512 2.1013617377229 2.3438468209826 2.8538319340536 2.0446035220276 2.1160139457107 2.419227509332 2.7262093738365 2.8879455550092 1.638578711468 2.8818108084891 2.3303183809127 2.0312493455258 0.7689187270043 2.9284337511216 1.9289609623803 2.2752931224307 1.4871707535982 2.3627368328428 0.78638390937661 2.1840571996849 1.7601071457433 1.6982028384983 1.7871037669305 2.1417483400317 2.1944081284173 2.7126781859972 1.7821567641769 1.9124243724219 1.9498497068058 2.1110244055669 2.6825204562848 2.0742515471358 2.7486170723437 2.1348358102839 2.7136563393352 2.1689250076811 2.0023697219693 2.8724642511044 2.0645795631216 2.7568390731367 2.4567776681235 2.4497620745108 1.610831285264 2.1780832736497 2.1717087298214 2.1354419971955 2.1905841998301 2.2288559547689 2.0910553434488 2.7696684048387 2.7280225860755 1.9922759385517 2.9070562805767 2.208474345439 2.0626443165825 2.4994838274533 2.2654175057284 2.2908184152596 2.2152364396848 2.1653500736236 2.0402194710198 2.1600987786666 2.3623579616763 2.3351996697265 0.73892338573467 2.0662951886087 2.8294840258397 2.2446444693424 2.8618676184507 2.0178356179721 2.7173914506894 2.7008188225926 2.8599434973674 2.1282447084692 2.7691147837685 2.3458485429992 1.5033606749516 2.7876216913673 2.2719974033011 2.8154980857788 2.4041201702034 2.8205151994234 2.8303498263891 1.986098162954 2.3141035859258 1.9339409843384 2.0853396581359 2.1707090332595 2.690280268641 2.1661384566175 2.670295236753 2.1700701363437 2.7209632551124 2.1543839041513 2.2604822926052 2.7269028696741 2.2434734654762 1.8158860333334 2.1654897705813 2.6766628479462 2.2595347889834 2.0354188211232 1.8289433168074 2.376864292179 1.5649165610346 2.6922898577996 2.0591510838647 2.8041433100749 2.2036536777792 2.7449035405641 2.8297830896837 2.2866735866185 2.4309845811438 2.8810875673149 2.3588457769541 2.2919754447602 1.7071641181227 2.3298988604617 2.8745204454758 2.9008368127347 2.0538542009449 2.852582442068 2.0858636805755 2.8903871710525 2.4427960097954 2.2677898063937 1.9336526276285 2.3832196600386 2.1280040683631 2.9271418348824 2.2930006238925 2.8773783934267 2.9050507490805 2.7688833545375 2.2829951645598 2.4281203150765 2.8201173631461 2.8307281411025 2.3078758738948 1.7715505246704 2.8716398356599 2.8404748388618 2.2973281207516 1.9764063352764 1.6185676574998 2.3691897475748 2.8620964383541 2.0764171572869 1.9435510541597 2.3141891379019 2.4313653029183 1.3940299351843 2.1576083144122 2.4078748262978 2.2082666027289 2.8384987560419 2.3074219551366 2.249948818168 2.8891422191069 2.9104520235106 2.3799777617476 2.2088825507986 2.4024884996359 2.8055873971006 2.2354676897652 2.0144465277155 2.2866118595117 2.2733744084819 2.0236043341245 2.2899236376597 2.3890303687921 2.2601351689602 2.4039434025888 2.4323317620298 1.7928140442804 2.2363797158894 2.2703590249376 2.2640122484409 2.2851598894605 2.146575650079 1.7457664387628 2.1938213033624 2.3237658542463 2.3774216544589 2.0285351938561 2.4210417949836 2.4409286901097 2.4747756927674 2.4298678830613 2.458318868873 2.2475560356864 2.3567207776141 1.9975058622895 2.3790685592153 2.0041781747265 2.1653068164174 2.3253944801127 1.874171885672 1.7940622779649 2.1986011836112 1.9833061180939 1.9720328890967 2.2354334730754 1.8958449729979 2.0339862797325 1.550602534065 2.0871169034664 1.508624900727 2.0449426160148 1.9290303023619 2.3196419080356 2.195515646921 1.7601734426748 1.9558431682385 2.2203011132503 1.9748590173204 2.415970402197 1.8715341367262 2.0035582492897 2.2343320631121 2.177212412342 2.3156258759746 1.9876838380068 2.0402793450471 2.0667213952338 2.3076382322297 2.2412137808594 2.2447626464454 1.9610215035366 2.1817235751999 2.2209228358064 2.3814680789788 2.3443205643195 1.8755540157711 2.4028284472121 2.1641208885262 1.884345633161 1.9206318921805 2.3016490471323 1.5088500768273 2.0501879326537 2.1774361993427 1.4886450671942 2.2477622922198 1.469897686558 1.84937086031 2.1671569518926 1.6010787550393 2.000873602104 2.4326030518585 1.8646105888477 1.9444718428757 2.1740672466955 2.0847276907205 2.301719190505 1.9718277246457 2.1863906965546 2.3506577614581 2.2509528281137 2.2821523044918 2.2839672425976 2.4506934723614 2.4182821977407 2.1183270855791 2.1887616993624 2.3121464734063 2.284311440228 2.4532064302949 2.4230286579634 2.302882369014 2.2947472811057 2.4742046192144 2.4426276441727 1.7635289701831 2.3554323164189 2.0450358551228 2.3893429508743 1.8159162295279 1.7582733108716 2.0754786236048 2.1985052881443 2.2719073744123 1.8800177988785 2.1995980852712 2.0964358887078 2.1233454835843 1.9253344138963 2.3014762934235 1.9249206663495 2.2481570585325 1.9941469062882 2.3461875192036 1.9890142599218 1.9670629042785 1.7706367556563 2.2186939979761 1.8434564685787 2.2400380749636 2.2528572420674 2.3405757558685 2.1221004579694 2.1806819904143 2.1175147441537 1.8646844965232 2.0733046192957 2.4367354448546 2.0903723902742 2.4520348926069 2.1323832583233 2.4242514664351 1.9658061611365 1.8192510057941 1.7916395656463 2.0555707914742 1.8308713347567 2.133289836197 1.9822638043255 1.9221719286552 2.1473123527674 2.1182308523118 1.9832233151788 2.2164994228282 2.2262413095182 2.2174215276843 2.0466975747467 2.4186678455453 1.8795659304638 2.2007451023858 2.2560929682273 1.9115845467425 1.8306536804316 2.1030639358482 1.9856050735307 1.9952620944286 1.5874192070919 2.0041900707579 2.2990971586324 2.1410055137418 2.2180347638353 2.1037018660763 2.0091078295405 1.8249152680176 2.3273335958291 2.3261626375169 0.60675738734828 2.2172037940379 1.0118408123592 2.3571518198008 2.273071496761 2.0731516926303 1.8915406984959 2.2843611314318 1.9865954919616 2.0974077257587 1.8053418536526 2.1511145701995 2.0095289126405 2.011391277467 2.248584613121 2.2675276251493 1.9150151066518 2.2920675634876 1.8951246372868 2.0260080730226 2.1317120675609 2.1380913405609 1.9702553868334 2.3092888670156 2.2419477234009 2.2464429326607 2.186520389962 2.2817280587629 1.9380469973337 2.3548607568251 2.2253569406605 2.0417985281345 1.2882003008057 2.097947426835 1.7902058915271 1.7326376387035 2.1405068819559 2.1142634140123 1.8344964080012 2.1005771198205 2.0980274379452 2.0281010544945 1.7289140079695 2.1137274115911 1.9900438612277 1.7633461796279 1.480800792779 1.7860772798399 1.8013576367256 1.7772708109539 1.9680453885417 2.3441431747298 2.2331927143002 2.1289006640626 1.9734873344236 2.3727769522456 2.1995801186471 2.0982645817094 1.850378995977 1.7691807067315 2.231259093154 2.1089408798024 2.0317261481913 1.9909092762778 1.8025721532064 2.3698939342607 2.2219392578306 2.1321655794291 1.8969853988664 2.2648063917743 2.1405705788133 2.0756902824852 1.200404930808 1.2055680159782 1.5109699541978 1.2800317879173 2.235814993483 2.1026453426347 1.9344298056826 2.2015969081801 2.0648269082705 2.182473244519 1.9759896851735 2.0204232381957 1.9577016122173 2.1853384648507 2.1192610089367 1.9489880047844 2.2305954309204 1.9891267731885 2.2075583261023 2.3014517601734 2.1949514744477 2.0239840123564 2.2573019827768 2.1085518017124 2.2251221574731 2.067747010154 1.9882373045276 2.0488412187747 2.2997563556707 2.2260868971125 2.0543546746002 2.2386709242166 2.10853741255 2.2101030295294 2.3155993210244 2.2073681945389 2.0330262148647 2.2696560373203 2.1055755354527 2.224373778258 2.2451130627361 2.0141910002055 2.2118223135359 1.9886605258609 1.8695814228281 1.6340808968641 2.0661585358535 2.1168370115386 2.031446448506 2.061312459706 2.0463966952665 1.8778744208349 2.0593234466211 1.9702355903437 1.7257507942581 2.0930604681606 2.0645468971838 1.8511029843801 1.916524277568 1.951244141748 1.832496736488 1.8885385652657 1.90485364317 1.7237414654701 1.9676594032037 1.9472389284449 1.7381857763094 2.2339659054633 2.123524530682 2.2022755527433 2.123094915538 2.0090883313101 2.0898307209831 2.191219766343 2.1829041105692 1.9694631757273 2.2140648464485 2.1947449341623 1.980563618125 2.2456324693523 2.1846385112145 1.9496568561735 2.1641075085604 2.2207271250961 2.1225448904158 2.1640858076107 2.1717029537714 2.0033679436081 1.8169828964825 1.962325696205 2.0161011031507 1.881966294618 1.7291218384503 1.5120393081933 1.8524335438919 1.6122663125063 1.510216023897 0.72455450268184 1.9790108255703 1.9156333915461 1.6962411638828 1.3554459915361 1.6139412284646 1.7077216526194 1.8102309924322 1.9476175486913 1.608374163559 1.7247442033756 2.0954750334238 1.5179834450684 1.9972210917732 1.3282101547907 1.126367533736 1.7555263728151 1.6775605923322 0.51405907639256 1.794857755818 1.7137060597958 1.8233992323513 1.6595054887462 1.7461010625889 1.6529058578148 1.6072812682754 1.6542129785239 1.661581637807 1.0914552951328 1.7706458181145 1.8895372160108 1.3664458860712 1.8057525998057 1.8210915412691 1.8104056819709 1.5806309317386 1.8164592224378 1.9167634076618 1.8187329809673 1.5330773056497 1.8124229230846 2.0516256876078 1.7972166393274 1.8228412501831 2.0362045983873 1.9520724849585 1.6954897413667 1.4787323563169 1.7198200302199 1.4657047043611 1.3887724461425 1.5974673413627 1.8059228836253 1.4141894141333 1.5716813216986 1.39942870046 1.528965387448 1.4018993594478 1.2421031729515 0.99727301647118 1.2556201554228 1.3730459178471 1.1889931733116 1.5704663604714 1.539396727468 1.7849169923545 1.4126774579143 1.7430595344667 1.716976640327 1.5188015104345 1.7543372290932 0.51155953778448 1.0895083188778 1.3863051013758 1.1235615181278 1.1634335190165 1.5535758510551 1.5168501033263 1.1941501268496 0.49904516538719 0.93370185123159 0.43373259978733 0.5669103830326 1.7354963086985 1.794947231445 1.6567318349024 1.541426942574 1.6406701576307 1.6253080310483 1.2874148446601 1.0677041523388 1.4400101586589 1.8706339212365 1.252078629481 1.9237800714714 1.3418016614565 1.2207200755836 1.7983124448481 1.5465148243344 1.3839736861348 1.5108997031168 1.3499211818398 1.533950694543 1.7231896190392 1.4317576462583 1.3639799466118 1.3012262166543 1.786041541266 1.5264827423982 1.4458815266383 0.92625572174505 1.8081438378508 1.5930827561202 1.5980500706136 1.3935240186898 1.7931286869568 1.5408359905726 1.2956778231065 1.3628736095584 1.3697049525648 1.5528471591886 1.2747339538444 1.2339952826935 1.5221154013441 1.0831560295233 0.88147610144992 1.0127818095291 1.7413276740058 1.4817715756012 1.7426456808399 1.5408874553379 1.7802131875212 1.3753141759551 1.7375276189381 1.299305993683 1.4972298809416 1.2777735785456 1.1652503987099 1.5492029105408 1.007637559478 0.42922384417282 0.93361667591789 1.0155079663849 1.3399598477067 0.98370414243876 0.54433837670931 1.2000534292499 1.2275863240724 0.17726016046738 1.4977161000339 1.229527326037 1.2781323902863 1.1593666200384 1.4856112751332 1.3074736237232 1.5654500688512 1.4069949309205 1.2830014758424 1.1724446875229 1.5316190582539 1.3462828180325 1.6056363316913 1.3550094777615 1.3693531118258 1.4067585985061 1.6062479815988 1.360384735714 0.83543330829969 1.3671106886901 1.3553389386228 1.4087654734737 1.0347882353767 1.3357949102147 0.95143603477926 0.99472280900982 1.1027226023096 0.64476152895949 1.3646648280248 1.1653104630252 0.94051192753637 0.86547407714627 1.4788596565046 1.4310135726059 1.3056096273318 1.2683522870401 1.4926662442767 1.1621812043195 1.5547226612815 1.3051188841754 1.3944390191659 1.2493876941508 1.5938607704761 1.2528849092513 1.6225514550333 1.3549440475174 1.3663832609055 1.4293936785216 1.628732044145 1.3400334022396 1.3474734765179 1.416623118933 1.2435888202103 1.0742230090852 1.3444103053052 1.3388245336034 1.3571134875618 1.2850896561286 1.2876240348722 1.6147266510059 1.5632057875195 1.2934494038906 1.3021013695613 1.3931700368796 1.8885289553329 1.5322324175681 1.2174658395903 1.2998140014778 2.0575502194495 1.6054710842967 1.3845739798579 1.31451228325 2.0710405427335 1.5898273140399 1.3528239600876 1.2907906068096 0.93219304258371 0.90322822913337 0.94749514269216 1.2945016314244 0.65054705455579 1.2435961194269 0.87157257352551 1.2642229257371 0.84693168677471 1.951930299973 1.5715881834005 1.2054397163445 1.2200464981167 1.8656055237268 1.5211488203006 2.0638116894477 1.8258049153664 2.0513607377652 1.8421612698864 0.72083459016596 1.1870211387943 1.2967930430625 1.1504256395864 1.062481486877 1.1584851525332 1.2472166544936 1.4946519776342 1.1733404529374 1.2548272242182 0.86093218530425 1.0763269975467 1.9913723050272 1.7422255078357 1.4995061950893 1.1851306285899 1.0992660050593 1.2149129805711 0.99160291390441 0.24621016436073 0.7190987493103 0.590217137263 0.84734532962268 0.55623255754956 1.7461045986591 1.6716140349162 1.282828051903 1.1954696864585 1.3327787067191 1.1647769244463 1.1788359152496 1.2314086791726 1.1290916588462 1.1575170159503 1.106022631662 1.2655976064226 1.2824242519658 1.0749229101814 1.1540968327533 1.162069233276 1.1396570927689 1.0782548299013 1.1174018451104 1.2325380219835 0.80709298140048 1.3692090194113 1.047257389288 0.95282002249752 0.91391370728376 1.1710745809083 1.1314499291373 1.2391720062435 1.4850874373403 1.3858471260006 1.2264036064034 1.2237340712959 1.2491442298893 1.3515650304697 1.2092470140791 0.86410605328053 1.06772651472 1.0559987791965 1.1651914192396 1.0674267268254 1.2328979667171 1.1454342242311 0.97620611393088 1.0599536231868 0.95910536217805 1.0241350393586 1.1806801859091 1.2721710718238 0.92997899624799 1.3702059557011 1.3213361672149 1.3216547599458 1.1361226332653 1.0797991832851 1.1394824839115 1.1933717595303 1.1320353016623 0.99135575471529 0.90138880751528 0.96979246079717 1.323761212256 1.3653340314062 1.1226750355987 0.97134631239965 0.85519909534764 0.91876120349169 0.99736595608101 0.88727275415949 1.0824878325814 0.92209466579488 0.95591787383456 0.8300070480395 1.0923119198681 1.3099970137221 1.1088516697303 1.264118556525 1.2593071685584 1.6777384567897 0.93042615838522 0.78616831590773 0.50079104245445 0.64454349867794 0.84401409814388 0.84618571302057 0.68786887836163 0.72049586242598 0.85242837384945 0.92940479018478 0.76061146640179 0.82147452888073 0.86419260621915 0.95161043200591 0.84646858199611 0.99792097612628 0.97547338471784 1.068403204502 0.69559294460095 0.68640646563687 0.95858871121478 0.98834651528309 0.82043846347452 0.93646662052504 0.82368689328397 0.80601045283362 1.0566817961837 0.78443863911914 1.0834437693119 1.1163103693099 0.87946415538309 1.1236396345862 0.70464406791728 0.73757403829915 0.83163776727999 0.8517835298652 1.0655932243714 1.3233804082086 1.3528402980178 0.77111272018074 0.74689079553484 0.78086597629419 0.94584826541815 0.8754757798481 0.94930568240852 0.77693032147494 0.78847107269647 0.78660336761913 0.84690414661698 0.84722900317108 0.70536483800089 1.3483152711146 0.72321642782146 0.72962181121982 0.7441509159232 0.6968015219432 0.68825367342373 0.65912181050943 0.72412524539701 0.77641040932607 0.73294483058485 0.70687504611078 0.74184632455847 0.73765505213026 0.6172656857792 0.70688119154746 0.72604346032805 0.728982215982 1.3959301435665 0.65762768743306 0.69024002467171 1.0429131821693 0.70317409153792 0.6291835465991 0.68994286551705 0.59186904354929 0.72667356724088 0.73830313423217 0.69346711799631 0.64749011037383 0.68501394679707 1.4127828301128 0.6476614425849 0.68241990748358 0.63819286261515 1.264805047356 0.76163411857679 0.68301280746105 0.77030233170867 0.74868586485098 0.6741742962131 0.6346368219124 1.1046845329899 0.6036237060551 0.63763879059797 0.60306076534713 0.64454560831344 0.68424204142259 0.66559832065118 0.61635876993982 0.65467959805928 0.60504177186881 0.61735563629899 0.77650589998762 0.64965831148049 0.64981270338275 0.8352735957273 0.61624010320374 0.69019173600567 1.0122483905771 0.76559948999486 0.82422601395566 0.58182937562852 0.59366256383702 0.53805327306998 0.66597046368257 0.61932538241716 0.59888791817236 0.64320325719104 0.54726422660027 0.58014066358782 0.58616849061044 0.60410234465273 0.98445475532117 1.0968403982909 0.55017636313996 1.2091150421185 0.5737530487304 0.46847605961802 0.53629836365016 0.98986594126684 0.53382189350545 0.75466526065695 1.0962052245876 1.4785854660037 0.65371611334909 0.5685964022693 0.58757260717457 0.62646149920188 1.5523396247874 0.48719615545693 1.5230666466691 1.1069341218169 1.6994092140179 1.3964570525936 0.86736947673994 0.98750074959743 1.5163143152855 1.366951589152 1.4084917972979 1.2188901493709 0.85361753993253 1.195983881318 1.0658436237287 1.2490969262257 0.52923954714426 1.2341248420844 1.0768691397572 1.1429574042848 0.84195054089055 0.97054403340037 0.7488423580853 0.83599317401026 0.98093704251564 1.1249364950028 0.9505931620861 0.41110994129178 1.4931202238977 1.2574215903054 1.1239631243989 0.82624664792979 1.3256014523641 0.18307273215971 1.0220040809061 1.4077287997145 1.2568417799686 0.99151039925161 1.1742048756316 0.78928550057372 1.3761002287951 0.61287801053528 0.98669414117002 0.74151390787757 0.63446069366891 1.4829478166494 0.95395320367184 1.6997759914398 1.5544920240488 1.4806629004536 1.1162697904891 1.3396891598374 1.3525401177249 1.1085142955867 1.2226244720866 1.176672645564 0.90139135153979 1.6010437036396 0.7671066573134 1.3988998900554 1.2623755606848 1.3468342294643 1.3554006428026 1.3263376820748 1.2803091645475 1.0912554293369 1.1716757733282 1.3473189199815 1.2925888225144 1.2512617431017 1.2786420441657 1.1667957372781 1.2899838793508 0.90966036261466 1.1816216135822 1.2545204642808 1.1437168338959 1.3144624348233 1.1470356697892 1.064641774777 1.1832932740912 0.90698363428021 1.1411053593081 1.069247794184 1.059384912519 1.3163813270812 1.2729607214457 1.3395671052641 1.3585201530922 1.1275173659883 1.2525865444802 1.3422007923839 1.8032915056991 0.91194479586438 1.3520289558667 1.0143187562888 1.0096871286642 1.2487334588555 1.3283143631276 1.5139656749699 1.3925211691886 1.1404469686254 1.1763129499417 0.99733229716622 1.152599009652 0.9822741410582 1.3381888956207 1.3264081983678 1.3894098746215 0.96161312958211 1.3234461847164 0.96163189244374 0.91315532985683 1.0317013833589 0.84503628017559 0.89081683983514 0.94674627449582 0.98252170880326 1.1178002538361 0.67329915098784 0.85320746610629 0.95199655668311 0.88670914223552 1.0685601883801 1.0291352619564 1.0300985144612 1.0015613319128 1.2525659732912 0.61415640224903 0.84253026459322 0.98506498334862 0.98109419790145 1.0694521898892 0.84566631628375 0.91862352773561 0.48852495019662 0.61162702136499 0.97603465484746 0.68301007815602 0.38524057407809 0.75479884735219 1.3640846505136 0.54490980208618 1.2151532684176 0.48704792436039 0.51884744494209 0.69229082721776 0.58746100569522 1.0606649927493 0.49871834700178 0.55679486774356 0.50202685883281 0.50329441763946 0.62103910580611 0.75236796746625 0.75163593931692 0.80852076959969 0.65683631660386 1.091560696448 1.3160152271548 1.1720790100795 1.1717722747194 0.8561774209693 0.62683612450469 1.0082238274305 0.97652906291433 0.92712992512567 0.83401305339042 0.2911945078964 1.2955905666789 1.2448807851245 1.1703996535193 0.37212344643251 0.87330596884798 0.59054743897715 0.52276312388499 0.79138669313179 0.79874444497787 1.0516030208064 1.0002245563664 0.55673571725518 1.3858191162177 1.2724414719218 1.3194725701996 1.1108681200976 0.98715791302336 1.4367165214674 1.2208262150394 1.2529741428542 1.2186519678483 1.1085540387024 1.2126077406915 1.0603562603638 1.3123040693529 1.0733107088858 0.89433940141608 1.1145162213354 0.97900876624424 1.2410018354405 1.0110084658091 1.2905558487887 0.82641499170847 0.90609386331263 0.97216761822011 0.68953722736065 0.89326047222083 0.97797191