# vtk DataFile Version 3.0
d-2__ created by libgimli-v1.5.0-1-g5991b6ac
ASCII
DATASET UNSTRUCTURED_GRID
POINTS 3065 double
14.646647106361	10.075660810886	0
14.704832811816	9.9744824778853	0
14.741572761215	10.143570688214	0
7.2181179570912	12.323267801616	0
6.9022853070009	12.159878277929	0
7.188568129403	11.864968865302	0
12.573766225573	8.2541691958959	0
12.179090385116	7.8396649872294	0
12.486344232856	7.7791041952802	0
10.909490913954	12.100065284392	0
11.157527929117	12.134706706046	0
10.807865018668	12.328963878518	0
10.246630703596	12.451261426896	0
10.370786380608	12.571785344107	0
10.283370652996	12.620349637225	0
23.486823884586	4.2589561787297	0
23.872774184789	4.3331786567402	0
23.693453371076	4.6788038393608	0
9.4017034496321	12.989518397958	0
9.459889155087	12.888340064957	0
9.4966291044861	13.057428275285	0
8.6528831969526	9.1661723501876	0
9.0889129509339	9.1546198128334	0
9.0172223973042	9.5848707535605	0
4.95	14.894536113346	0
4.9002967662305	14.698789777549	0
5.05	14.834347813918	0
7.8357302798552	13.980149844525	0
7.7483145522431	14.028714137643	0
7.7115746028439	13.859625927314	0
7.9373561751407	13.751251250399	0
9.2631921819019	12.842543338384	0
9.0547266763919	13.085654315995	0
8.8463136869378	12.696007878209	0
6.9615730037337	14.465792775704	0
6.9945996683525	14.319328169198	0
7.136404458958	14.368664189468	0
21.8222466978	6.2098629456668	0
21.734830970188	6.2584272387846	0
21.698091020789	6.0893390284563	0
9.5840448320983	13.008863982168	0
20.073932145557	7.181148808024	0
19.986516417945	7.2297131011419	0
19.949776468545	7.0606248908135	0
8.1805694002704	13.571297247173	0
8.3602246455282	13.688764085818	0
8.1853931903038	13.785892672053	0
20.765748039212	6.6761602926357	0
20.627236771482	6.5291852330617	0
20.823933744667	6.5749819596349	0
8.5857318789655	13.373982996136	0
8.5275461735105	13.475161329137	0
8.3890349057803	13.328186269563	0
9.2343819216497	13.203121154639	0
9.0595504664254	13.300249740875	0
10.311662072528	12.260060065814	0
10.363276453366	12.455311173661	0
20.948089421678	6.6955058768454	0
21.049715316964	6.4666072827198	0
7.6608988246309	14.077278430761	0
7.653388897389	13.960804260315	0
28.908739718026	5	0
28.508739718026	5	0
28.708739718026	4.8492605261212	0
13.77248983024	10.561303742065	0
13.830675535695	10.460125409064	0
13.867415485094	10.629213619392	0
12.119100932851	11.60049948175	0
12.082360983452	11.431411271421	0
12.206516660463	11.551935188632	0
27.358739718026	4.8945361133462	0
27.309036484257	4.6987897775495	0
27.458739718026	4.8343478139176	0
22.57224829691	5.6036960972777	0
22.798029869207	5.4953214203625	0
22.696403973921	5.7242200144881	0
13.080673936584	11.066292257453	0
12.956518259573	10.945768340243	0
13.18229983187	10.837393663327	0
28.458739718026	4.8343478139176	0
28.408739718026	5	0
12.308142555748	11.323036594506	0
22.547801874951	5.2633883138599	0
13.63397856251	10.414328682491	0
12.024175277997	11.532589604422	0
12.031685205239	11.649063774867	0
15.703145764949	9.6093634639172	0
15.615730037337	9.657927757035	0
15.578990087938	9.4888395467067	0
12.444587677104	9.0315078187863	0
12.75	9.25	0
12.46875	9.40625	0
10.45820210822	12.523221050989	0
14.654157033603	10.192134981332	0
17.902749122926	8.2149218349628	0
18.150786138089	8.249563256617	0
17.801123227641	8.4438204290885	0
11.332359384341	12.03757811981	0
11.244943656729	12.086142412928	0
11.237433729487	11.969668242483	0
17.130607666996	8.4717569577762	0
17.327304640181	8.5175536843494	0
17.269118934726	8.6187320173503	0
12.018062834866	9.3144627641309	0
16.96875	6.90625	0
16.518062834866	6.8144627641309	0
16.944587677104	6.5315078187863	0
12.759821286388	10.899971613669	0
12.551355780878	11.14308259128	0
12.342942791424	10.753436153495	0
16.577303041071	9.1237205327386	0
16.453147364059	9.0031966155281	0
16.678928936356	8.8948219386129	0
21.923872593085	5.9809643515411	0
14.508135838631	9.9286857513121	0
8.7098875559768	13.494506913346	0
8.6224718283646	13.543071206464	0
7.5190940340254	14.02794241049	0
-0.24940646753892	14.834347813918	0
0.05	14.834347813918	0
0	15	0
2.3	15	0
2.2	14.888006064741	0
2.4	14.810067208388	0
11.507190839566	11.940449533575	0
11.36538604896	11.891113513304	0
11.502367049532	11.725854108695	0
0.1	15	0
0.3	14.849260526121	0
0.5	15	0
-0.95957299032574	12.742247653798	0
-0.63660515661073	12.736198774421	0
-0.72105850144488	13.237141247116	0
2.9	15	0
2.7	14.849260526121	0
2.95	14.834347813918	0
1.2	14.888006064741	0
1.3	15	0
1.1	15	0
1.9	15	0
1.95	14.834347813918	0
2	15	0
23.155770102009	4.4707815868157	0
23.398627607885	4.6419549088128	0
22.971047224781	4.718656217856	0
13.779999757482	10.67777791251	0
10.633033563444	12.426092464753	0
10.491228772839	12.376756444483	0
10.628209773411	12.211497039873	0
2.0997032337695	14.698789777549	0
2.05	14.894536113346	0
8.8115134512622	13.265608319221	0
7.6871281808847	13.519318143897	0
3.05	14.894536113346	0
3	15	0
1.05	14.894536113346	0
1	15	0
25.508739718026	5	0
25.458739718026	4.8945361133462	0
25.608739718026	4.888006064741	0
0.95	14.834347813918	0
0.9	15	0
23.708017310135	5.0679061559452	0
23.57570494199	5.2584272387846	0
23.492391392804	5.1534065041647	0
6.5387045333462	14.528279940285	0
6.7500015991102	14.393833151611	0
6.7867415485094	14.562921361939	0
7.4860673694066	14.174407016996	0
7.3112359141823	14.271535603232	0
7.3148706664546	14.058847515876	0
6.0874157276122	14.951435706882	0
6	15	0
5.95	14.834347813918	0
13.954831212706	10.580649326274	0
7.5148776296588	13.813829200741	0
11.889880414633	11.599727754597	0
6.8666473488796	14.397882898376	0
6.8741572761215	14.514357068821	0
1.4	14.810067208388	0
3.95	14.894536113346	0
4.05	14.834347813918	0
4	15	0
3.1	15	0
12.993258208972	11.114856550571	0
12.898332554118	11.046946673243	0
12.90584248136	11.163420843689	0
3.9	15	0
4.1	15	0
2.1	15	0
5.1	15	0
5	15	0
7.1315806689246	14.154068764588	0
5.9	15	0
5.3	14.849260526121	0
4.6070433069999	14.368240644588	0
4.6	14.810067208388	0
5.1938980518111	14.524993056905	0
1.0997032337695	14.698789777549	0
25.708739718026	5	0
4.7	15	0
4.5	15	0
24.408739718026	5	0
24.316180298466	5.0287141376427	0
24.321832839145	4.8833962425865	0
24.708739718026	4.8492605261212	0
24.508739718026	5	0
24.458739718026	4.8343478139176	0
23.483145522431	5.2871413764274	0
11.573663228844	6.6878504141764	0
11.783228215591	6.953244789404	0
11.498511972069	7.1356956560705	0
25.308739718026	5	0
24.908739718026	5	0
25.108739718026	4.8492605261212	0
25.408739718026	5	0
25.358739718026	4.8343478139176	0
15.520804382483	9.5900178797075	0
15.528314309725	9.7064920501529	0
25.921540276389	4.4709363375124	0
26.277022110672	4.3098125374061	0
26.309036484257	4.6987897775495	0
21.069293459246	4.0184782266431	0
21.444587677104	4.0315078187863	0
21.46875	4.40625	0
25.214841666215	4.524993056905	0
25.508442951795	4.6987897775495	0
23.395729794819	5.3357056695452	0
23.358989845419	5.1666174592169	0
29.8125	2.6258505226016	0
30	3	0
29.625	3	0
5.8122409423352	10.291228465074	0
5.9889649985263	10.545789285321	0
5.5715926789368	10.688360310892	0
12.278524372398	8.4033099465931	0
12.266749266227	8.7424709281467	0
11.71080923903	8.5533847165846	0
26.458739718026	4.8343478139176	0
26.358739718026	4.8945361133462	0
23.147692779655	5.301064247891	0
23.04606688437	5.5299628420167	0
11.120787979718	11.965618495718	0
26.408739718026	5	0
26.508739718026	5	0
26.708739718026	4.8492605261212	0
9.409213376874	13.105992568403	0
30.458635160201	3.8690920654536	0
30.669330384347	4.1196162860905	0
30.364109258215	4.2441307961306	0
28.358739718026	4.8945361133462	0
27.408739718026	5	0
27.508739718026	5	0
25.6875	2.4642195584136	0
25.771866335589	2.1927504712561	0
26.053487503597	2.1539862920131	0
25.384151503975	2.7152844425934	0
25.6875	2.76491822766	0
25.5	3	0
9.2674085862685	13.056656548133	0
27.708739718026	4.8492605261212	0
28.308739718026	5	0
15.382293114753	9.4430428201335	0
29.308739718026	5	0
29.358739718026	4.8343478139176	0
29.408739718026	5	0
1.8061019481889	14.524993056905	0
29.658146185565	4.8343478139176	0
1.7	14.849260526121	0
1.5	15	0
30.090078193556	3.9711909286582	0
15.173827609243	9.6861537977444	0
15.3534828545	9.8036206363886	0
15.178651399276	9.9007492226244	0
18.23069193846	8.0845247930538	0
18.238201865702	8.2009989634992	0
18.11404618869	8.0804750462887	0
4.8	14.888006064741	0
4.9	15	0
16.402471585846	9.2208491189743	0
16.394961658604	9.1043749485289	0
16.489887313458	9.1722848258564	0
6.1791038580454	14.704649136022	0
17.36404458958	8.6866418946778	0
17.451460317192	8.6380776015599	0
3.6	14.810067208388	0
3.7	15	0
3.5	15	0
16.922142161486	8.7148679353872	0
16.4287009421	8.6628888321103	0
17.302858218222	8.1772459009316	0
17.553086212478	8.4091790074343	0
14.056457107991	10.351750732149	0
14.828988488828	10.095006395096	0
5.5	15	0
5.7	14.849260526121	0
21.1875	4.5625	0
20.90625	4.71875	0
20.882087677104	4.3440078187863	0
6.8150329680421	14.202631790528	0
6.4739761191302	14.193291511538	0
15.804771660235	9.3804648697915	0
14.930614384113	9.8661078009702	0
4.3	14.849260526121	0
19.199774869435	7.6667917392027	0
19.112359141823	7.7153560323205	0
19.075619192424	7.5462678219922	0
9.9706052236163	12.250719786823	0
10.035333637832	12.585708215571	0
20.860673694066	6.7440701699633	0
20.773257966454	6.7926344630811	0
9.6856707273838	12.779965388042	0
-0.43250979015094	13.369587523725	0
-0.85662454898514	13.581460773951	0
22.514062591455	5.7048744302785	0
22.375551323725	5.5578993707045	0
20.742913400511	4.047377368749	0
21.292928542093	6.286653279494	0
21.472583787351	6.4041201181382	0
21.297752332127	6.5012487043739	0
24.1875	2.7176993931111	0
23.626112873365	2.548251847651	0
24.1875	2.3788043021908	0
21.958672828761	5.41136391053	0
22.167085818215	5.8010103483154	0
21.673644598829	5.7490312450385	0
20.175558040842	6.9522502138984	0
19.891590763091	7.1618032238144	0
19.899100690332	7.2782773942597	0
19.017433486969	7.647446154993	0
18.878922219239	7.500471095419	0
18.325617593314	8.1524346703813	0
6.2866035579579	13.872661794752	0
6.1724083866651	13.36768415665	0
[...]
CELL_DATA 5846
SCALARS Coverage double 1
LOOKUP_TABLE default
2.4094241706795 0.86892094102345 0.76144417171924 2.3155677360282 2.8683092591014 1.3905739189294 2.4149741106336 0.64574144647764 1.9004981617254 2.8206802438712 2.2843410244357 1.9703993909179 2.3298004960652 2.8274056397765 2.8629636764117 2.8526422613745 2.2226734245984 1.939074639833 2.0166657226381 2.2424905246776 2.0343964899169 2.2718371079897 2.8587973476537 2.0032836012675 2.4421962820582 2.8816003539727 1.6607310357959 2.2400929992162 2.3553466912287 2.6699006570813 2.3429272930108 2.0005967597919 2.0623950932854 2.9050654095528 2.8848684733194 1.0223501090571 2.3726115467573 2.9007465186976 2.9378895674701 2.3101870715886 2.907583619772 2.0248066132442 0.98178184820859 0.98314792438021 2.4156039978383 2.0028282804433 2.3429076894846 2.2564394263948 2.0509382719057 2.838695576771 2.4053084849818 1.4965206589272 2.0865658426168 2.2790865887209 1.8184175583044 1.786573358578 2.4132952457869 0.1817936461223 2.1866051787689 2.1799518084763 2.7117979227231 1.4081677486266 2.9430500915665 2.284254967483 1.7784361998731 2.1909676456452 2.036771722121 2.2523933363778 2.1388348140878 2.7031897199736 2.2697616719689 2.6832343605074 2.3048807845571 2.2878391065199 2.2069226122361 2.7441764895441 2.5019595314865 2.9164862742193 2.0063174205417 2.449354237815 2.2608063433286 2.0305700776786 2.2413498170461 2.7588414507418 2.454911256779 2.9266335102014 2.7814423839238 2.7318425835804 2.4455843128417 2.2187433616006 2.7659460003398 2.1997213845414 2.5427370669582 2.2241520489164 1.8589378099455 1.9945071449915 1.6348294240372 2.2781949482698 2.8278567970582 2.3990402522945 2.2145169374632 2.0576697101826 2.1233309803539 2.8534285846658 2.2383935372799 2.881961264718 0.55402464351388 2.1188720950574 2.7091872056047 2.9145794668679 1.5367387517536 0.86745888312747 1.7257219435506 2.8525930526311 2.752849522742 0.26096811053034 1.9899212097852 0.57291437378405 2.2046869963311 0.82354993841245 1.7245810024083 2.208202727913 2.3926526412536 2.1732563400746 2.1313104118336 2.8933276404996 0.50612917963208 2.1410918088053 2.6892084042303 0.50653011312457 0.63914764191 2.4052538514517 2.2942911368692 2.0993582848188 2.6755881296509 2.0337115146631 2.8723558373683 2.259228696456 1.7209546615117 1.5423139299564 2.1108736758718 0.49800071608507 2.8980468349879 2.2715255425181 2.1520480488926 2.4314512649425 2.2972836810054 2.8114993667881 2.9254126624547 2.892750283132 2.0745169326246 2.7219143184365 2.888906087547 2.0851558629628 2.1009446668212 2.2007593158732 2.108334816898 2.4193979832886 2.8111062298361 2.1523299910596 2.3645670659194 2.9119269255029 2.295289310426 2.1633137309668 0.9554906115905 1.9113144708949 2.4015143812897 1.8347355559931 2.348707789159 2.3657954931854 2.8400195793175 2.1851503812098 2.8619768563929 2.109113219032 2.8666368844818 2.8348129381914 2.3265991394526 0.36579868319092 1.8962370573157 0.82143800257141 2.1628850868534 0.59879331166101 1.8053403945272 2.2962307827121 2.8891996008374 2.0445399656493 1.987560012342 2.9084661964629 2.4138581515639 1.2978565590144 2.3206426313284 2.273026235757 2.8948383732181 2.0572077903828 2.3688491232638 2.3071354359373 1.6116138970211 2.8696372506216 2.3149553451633 2.3650323491288 0.36849976539044 2.2692507015505 1.9195813655618 2.4233381215825 2.2215226579312 1.6180254288013 1.483487632365 2.7003556299813 1.5044372502173 2.7000271695666 2.7206891395398 2.8753798575326 2.339834645311 1.7822422923789 1.9674241333769 2.9223841410136 2.4099959139722 2.4304301144098 2.118050035723 2.4427033186996 2.281693870538 2.3541070855964 2.1870144685583 2.3744107234955 2.1997663527304 2.448774625722 2.2850493006683 2.434286039524 2.1162520098946 1.8355039557431 2.1064744505156 2.2439961977337 2.2645671267725 2.810372017404 2.8442621938219 2.8575785677365 2.3107657666155 2.1213610360285 1.9318159364952 2.1647251436059 1.9886875136812 1.9588483889041 2.0784790387652 2.2139749255173 2.3925256264571 2.383914048491 2.4335341716795 2.418264166162 2.2503415950202 2.3134377550334 2.1284801719172 2.3399895309989 2.0209771045792 2.3105333600704 1.9724984508022 2.0478742896219 2.0639586838958 2.365528078029 2.4150858659417 2.2622596908019 1.8662095056193 0.65483220058057 1.9164248683848 2.1580057202497 1.7777020105429 1.9673559904028 2.3364192553868 1.7633561958177 2.1262543256816 1.8232462488057 2.4528852345135 2.0301897510757 2.1226378240546 2.4590121735777 2.470252042281 1.4146439955529 2.044859090948 2.3836291706255 1.9207261965585 2.0813825228211 2.4069938428315 1.8512963658479 2.1186643595887 2.4772072120069 1.0385027091271 1.9362927205434 2.4663081379459 1.8727038233902 1.8129685412363 2.1519802173328 0.71491300141128 1.8655648653383 2.1953972082978 0.89575376645324 1.9755512095778 2.245317918969 2.4494316330445 2.1676551136582 1.9954665144381 2.3490884844553 2.040670568793 2.2821250276713 2.3714541436431 2.3382946058387 0.71873419813648 2.1218045650152 2.3786578369597 2.3577626133703 2.3972430008625 1.9572758556696 2.1879743675983 2.0416572233433 2.2583016868924 1.9307107064232 1.5999702091021 2.2141896160342 2.2365262855032 1.9192304854933 2.1563465152596 2.2368136556929 2.0751680839488 2.1621085583678 2.0547022195955 2.0068099947352 2.0200722589607 2.1827224337461 2.2370958882327 2.3416094282715 1.9287843542839 1.5328013700967 2.2422574107034 2.3470866944571 2.1516980696152 2.2668849478431 1.3026404658537 1.5636986941244 2.1613168208204 2.2758951637245 2.2398525913641 2.3416643138693 1.859773037737 0.87410659290084 1.8923001150712 2.3068821584284 2.0470265737365 1.9480689139514 2.0826347527259 2.4168017443351 1.3648385551871 2.0145541146042 2.2161322475349 2.2094910222134 2.3190564032052 2.0919073597022 2.2182330912814 2.1096760914982 2.4411664136451 2.0034762029906 2.063640745474 2.1104092050897 2.0427597706124 2.2267388625607 2.3244391595892 1.8826169634569 2.1921508224887 2.1727249559214 1.4238025024617 2.2187015020936 1.3986184103141 2.2244347442433 2.3249759797226 2.121752199829 2.2380719505695 2.0604071161031 2.1148495629353 1.9158861162601 2.2769636296684 2.1648559315437 2.2367314713565 2.0767051299814 1.9809053317952 2.0821631317085 2.0309388655784 1.4830945540697 2.4146398044538 1.8966174234505 2.4378192437901 0.83370003852241 2.177864553904 2.2700065807841 1.8920214526671 2.199911495705 2.2517951494041 1.9872896001071 1.5525405171328 2.0908661720564 1.8674713621386 2.0917156119884 1.9695983644596 2.0189730888508 2.1958190040478 1.2357016729722 2.2397680616991 1.8293817648676 1.8293029648534 1.15159486825 1.9823756477946 2.3154526258961 2.2090526591938 2.0711546223446 1.7963622802264 2.1501446734285 1.9814832577384 2.2917750410818 1.9652614042811 2.2947462632219 1.9885300157233 2.3069037144484 1.8991152847708 2.2071998969499 1.7992693456211 2.2264635471125 1.9813891915523 2.3136319589379 1.9801174774613 2.3024442815869 1.6220516113014 1.9559209510993 1.6802535995325 2.0070773787017 1.9609202233663 2.2765876271693 1.8555857216844 2.1557232801159 1.871328561116 2.1897743143364 2.2219537799657 2.2610574074376 1.9084492288811 2.0145538995014 1.9559239685419 2.3072314522838 2.274312859438 1.7918443629063 2.2458837580796 1.6945369599643 2.0992821411888 1.8207167426463 1.5487494692267 2.1555163938112 1.7865467335003 2.1098404784869 1.8432821254469 2.1349954063202 2.0650989373022 1.9215921537415 1.8667438561043 2.128280593904 2.0051563114122 2.0245700974321 1.4798580082956 1.8176414119541 1.7955259993253 1.8006021490933 1.7785137230111 1.9586118266696 2.3264273090638 2.1731505929312 1.8281907903651 1.829304472319 2.2423222643789 2.0492612229804 1.8750257562356 1.9531319515551 2.3398051133427 2.2074192679142 2.0759015204155 1.0404116243886 1.1792972645379 1.1206036366303 1.027752487781 2.2349341474545 2.103670468739 1.9396256709459 2.2857698960698 2.1874137497645 2.0286629094394 2.2482676402733 2.0940616595399 2.2007280031072 2.0364394594613 1.9569509523278 1.5212042891344 2.1147766782805 1.946636664732 2.0587293953355 2.026142254998 1.9857555773737 1.8186117626574 1.9760761305342 1.861507736656 1.9216299677709 2.2380568981748 2.1372058876474 2.191418337938 2.2486420056981 2.1283464062429 2.196278870598 2.1504462259256 2.0593707549987 2.0942117333631 2.1856949687179 1.923384658114 2.1187674575028 2.2647055931707 2.109236490461 2.2052490354189 1.8989644410698 1.8514298341972 1.8213349101518 1.9444114957235 1.8869170869083 1.886983899236 2.2400947310815 2.1568471661901 2.000110337408 2.2346128767789 2.108690043266 2.1717617349289 2.1225741562484 2.0261585718027 2.0448492553954 2.219679289941 2.1804999865831 1.6024915043682 2.2176427212576 2.0361393482532 2.1611859296468 2.2656868595256 2.1085558683768 2.203472391388 1.9824301995653 1.8746042327279 1.4310320780809 2.2444725131153 2.1147721689508 2.1894209619187 2.1376252000212 2.0406187306876 2.0777747484946 2.0880323886381 2.0837968922035 2.0283467993918 2.0345511692708 2.0093296718786 1.8499653868881 2.1964231549426 2.0484046614831 2.1400919065087 2.2354412842925 2.0606485172911 2.1772610012317 2.2207199796077 1.9297721536937 2.1602662376042 1.867860628061 2.0452204654358 1.7325307480643 1.6272587146096 1.6613440526084 1.2555679914061 1.9319233731456 1.9880293155793 1.9375926264384 1.7797643656734 2.0299833508818 1.6868606507575 2.0631878669422 1.7002075974499 1.3822595603329 1.5592444318701 1.5553388507449 1.8200612039984 1.3816700964 1.5789110862791 1.6992040930284 1.6051824221312 1.7495528154934 1.5226296364059 1.9868023669127 1.4163633508294 1.8250726765831 1.6695414818568 1.8901698645882 1.8753769565555 1.9680370588083 1.8174291877145 0.99482339457307 1.7139873760467 2.0695833037343 1.72225193573 1.7999888597403 1.632861826312 1.7539164821292 1.6579656482997 1.9657586229677 1.7374321657411 1.7916906937632 1.2908704161568 1.9655173998126 1.3847145822962 1.5977629723052 1.5319155266123 1.9125849978336 1.9417170161567 1.9026309736899 1.7973622927554 1.8508026885641 1.8185474227887 1.6169267147732 1.9107333911428 1.7589914620005 1.9752309825971 1.8256068089837 1.8387286820861 1.5998705500871 1.5663707567902 1.7557081238877 0.82066219471365 1.630273886801 1.650678507391 1.8077161898848 1.0224103582314 1.7826415671046 1.0687280884979 1.9753732094056 1.6868563387102 1.4011636789011 1.7628357447779 1.2873741030868 1.3660095938867 0.71779168204912 1.0068329658338 1.3670122493988 1.7701105186796 0.49018138126454 1.6592707534721 1.1646455012059 0.92707341337644 0.45390308790726 1.0764783299151 1.2665352117243 0.75093150455319 0.48090288342883 1.4382466200002 1.4025414387019 1.3469700626272 1.991143653018 1.7863451198504 1.6829037395364 1.4634250942402 1.4803611930957 1.7942055760428 1.9448652836256 1.2769305387672 1.4905517503864 1.5523315178192 1.7780712661566 1.0180434176503 1.6344670495819 1.8014098979895 0.87604213700845 1.0859927958229 1.2962687076843 1.0156439600533 1.481534766736 1.8055522793331 0.8096790081224 1.4657092900779 1.680468188177 1.5878266946319 1.470403433542 1.8389236137931 1.1863804520371 1.0146363767463 1.9956331448216 1.3701011539411 1.3619974622147 1.3597162860406 1.4093923978477 1.5720691073886 1.6340694451102 1.6464367996987 1.4235439717586 1.348425311413 1.5951232231012 1.4033602865055 1.5879063480295 1.5074632555941 1.5616971760119 1.8612174969749 1.4303037112609 1.3994573487482 1.224707990994 1.1302185757066 1.6370407299094 1.4206551667209 1.5743898061518 1.7477077800837 1.8814944109196 1.4395519413628 1.1092284571817 1.3503795553777 1.2893035362467 1.0786651453029 1.3697902980438 0.98761647074991 1.6942021516243 1.0117604885276 1.6250095273089 1.5119932409418 1.9605498321196 1.7025836092812 0.95190729445459 1.837209697048 1.6802042655577 1.5276704380805 0.43122330437863 0.58728511868145 1.3919874380135 0.94509130165607 1.4840425815784 1.0213866863894 1.4166603824093 1.5710828818162 1.9209386460928 0.88612753689117 1.4354846609957 1.2099883046819 1.2209091812626 1.4755950461073 1.4121970159539 1.388229708538 1.2830645598546 1.5053348398021 1.3265116694978 1.4797952286953 1.1274287015659 1.1855501128982 1.2395964317927 1.4862607204138 1.4822180289292 1.2302768786576 1.6532000787146 1.4733914626947 1.3416006763298 1.5900761005983 1.3736259253275 1.550691628814 1.2613471305376 1.6349874834522 1.4646787991475 1.6333625394732 1.4082077011495 1.4880287016662 1.6005183471941 1.2709440156029 2.0085306830692 1.4870797435891 0.92443654638352 1.4492111907381 1.3726018853157 1.7113891093305 1.2517253439926 0.98162150015838 1.1633817466991 0.89139179072733 1.82678341976 1.0276693998185 0.93771713593377 1.4519091566668 1.3648803020097 1.4094717063243 1.8836795133131 1.5657804816535 1.693213262582 1.4020215489802 2.0207315462063 1.819174908898 1.4223066840606 1.3798007676326 1.4089232193369 1.0188029231155 1.4012195561787 1.4949264112039 1.5645509677837 1.4153113911876 1.4394798639201 1.4927187445765 1.6956956955696 1.8835838124567 1.4138066551944 1.3630940490116 1.4763521808226 1.4505890300041 1.7414741755702 1.714386105673 1.2087289983199 1.643412202108 1.5147977674985 1.2125408666242 1.2403530720453 1.1567956578464 1.1287541798179 1.1767902420673 1.4987900496407 1.4317422407614 1.5010167341084 1.4938365441404 0.96354781745986 0.82797875248542 0.91250386918817 0.90120438677073 1.3655201136873 0.90718449306455 1.2477823397881 1.3306255459793 1.239060682975 1.4194550639448 1.2446798872767 1.1815785491433 1.1256061511076 1.160424932516 1.1805482191436 0.70944358295061 1.1446752751536 1.0352723083542 1.2191261975331 1.3319323534882 1.0041078854476 0.69041377240607 1.121690406804 1.15518208883 1.0190066016017 0.98776548304951 0.85400842539282 0.86072427847935 0.94558000487777 0.7473051740747 0.83974990125568 1.4064090122034 1.2533690274725 1.1322829355993 1.3725763433645 0.75553078421976 0.92603266145348 0.97714401625728 0.79074681904554 0.83867819893112 0.82878078902918 0.78861523429055 0.71301594355076 0.98128171178929 0.87879898642221 0.93528077444102 1.5355039222258 1.167580316852 1.6791121524315 0.73068246388206 1.7055549156984 1.3706821609409 1.1287008252195 1.0566494211132 1.6667079836373 1.4998840714355 1.4076660124676 1.5570811435427 0.54526480352731 0.75372497761759 1.4161967268306 1.647748874064 1.6643177070401 1.3593762527955 0.95928162817138 1.3672631495817 1.838993631698 1.5717274413653 1.6956600377744 1.3516738301173 1.4200016542332 1.3686468468708 1.4423027073684 1.3231570854422 1.0588294070548 0.85997832082116 1.4499678993611 1.9210466371541 1.4870732252816 1.4735005950569 1.4552714878103 1.1766338776621 0.53354019325966 1.216162839648 1.3391055752162 1.3235612159389 1.4633219834846 0.87961861628062 1.4521906096865 1.4065389899899 1.4399719842734 1.3732019003018 1.3373959220023 1.4002542031141 1.3590778661178 1.3808253762968 1.4344977711341 1.4412023606182 1.3414111892328 0.63744891746518 1.4237715731973 1.3538036425387 1.4266360463957 1.4112285480102 1.4228918151262 0.85706513345163 1.4461123985421 1.4165315924707 1.4492203265101 1.3977092417071 1.4564200655842 1.4109342296006 1.461585977786 0.91103423853807 1.360904882252 1.3378146794673 1.35893001301 1.4408152391601 0.74658805376733 0.86768059148065 1.4355901989412 1.4663046018319 0.88938685918149 0.92329342052089 0.88532751422648 0.82215124516261 1.4025136311557 1.352496239567 1.4487716318765 1.4622818992167 1.3787193455544 1.5079724966479 0.93193163805141 1.3942807673624 1.6428798183766 1.5726108370327 1.4984743724402 0.89160835055006 1.4805854862874 1.4556302331127 1.4861038533384 1.3832484475492 0.82831975233353 0.83758583934346 0.84618844643119 0.90856530795165 0.78591192664152 0.93762666349686 0.79741229815395 0.8427164314049 0.78940335245207 0.7800797841467 0.8355346733782 0.86502202146151 0.75923283309608 0.75992547876699 0.80766132190129 0.88842702212171 0.79053606635339 0.80066052472803 0.7263454858022 0.67911546442019 0.7777412115846 0.79813587508886 0.7039900956 0.70280496112039 0.78171157772665 0.8626788319498 0.79211228112359 0.76929213461093 0.84373445934137 0.75341377145576 0.77237508242166 0.98174814207405 0.75737649483754 0.71348943792364 0.74378046339425 0.8788068129585 0.66290925867858 0.74563211451493 0.71591927924921 0.72292963344904 0.97179445213648 1.4872617618692 0.78173631745797 0.69613313419013 0.63424381880756 0.68003946030484 0.74874867055976 0.70474474709385 0.68821676206756 0.7003158466318 0.64965288564731 0.9409623155216 0.63148865591459 0.5848486350212 0.7142573265472 0.67990390632568 0.80586468268227 0.95604750479742 0.80876128325785 0.78621359405928 0.7179600688672 0.669109738982 0.66372794591352 0.68323951011396 0.62806274322652 0.6640806308227 0.66665506991891 0.62164563546358 0.73103341130668 0.67292544295773 0.60148908211027 0.55070041175388 0.83110045674881 0.70280228955152 0.59648154760371 0.6626212902154 0.91347831391553 0.91497218265069 0.87080057524013 0.74795853470847 0.60807623745544 0.66158409977666 0.84366518512046 0.75903912376291 0.86337581099597 0.91809143830542 0.76724286438372 0.69385912235248 0.85360258608764 0.818182251357 0.82891692768536 0.74472735134489 1.3788042550631 1.3902004636428 0.57934102718776 1.0181598516501 0.565755379084 1.0730081735374 1.0573166495601 0.58978837736003 1.0345959560744 0.83739690989235 1.0257018163972 0.92839954994021 0.98928877775616 0.831454814108 1.1043000823312 0.97943848256271 0.9701769254886 0.90991187086948 0.97684083985406 0.62484782057527 1.0658285662249 1.0632384127163 0.56145268950493 0.67369614746169 0.93946969997614 0.93134101721581 1.2385233305281 1.0913438011286 1.0899932470965 1.0107586449401 0.68032120158973 0.63112798111726 1.0298979128114 0.62000875807013 0.61788274111053 0.67887631326464 1.0635798227802 1.050453101089 1.135107549781 1.1326406942109 1.1424974797012 0.76211945396346 1.1539816603097 1.0261512391435 1.0985893191481 0.56343902064823 0.59358844691609 0.66391253487599 0.66127157129577 0.56481388869339 1.0081182844473 0.6715350665016 0.64733415693026 0.52146502579505 0.49185248646503 0.53494894611447 0.49724139363856 0.65870017463601 0.53133213691999 0.53870431058851 0.45639366721537 0.57989880515499 0.514072684815 0.57377024072026 0.42149949093898 0.60491059345723 0.51782474702175 0.55528492495441 0.56718669786946 0.48865768659712 0.38953691331819 0.54785693152389 0.49585818555812 0.6225308138231 0.47703923473923 0.39988756589824 0.53797514257496 0.65863013568616 0.4552588896346 0.5055468518215 0.60810958261237 0.71543458461332 0.41890994688952 0.32052411226989 0.51715143500789 0.64492135760504 0.60655159395613 1.2733240229863 0.76479608858921 0.79053079964896 0.49202922798375 0.36712629794942 0.46910608108405 0.45503042863831 1.4282505803506 0.50223333529884 0.45271150645374 0.27128578658384 0.44300802701412 0.46881044300178 0.59789463854182 0.40530513606309 0.39768407793152 0.52065328767771 0.36010485275128 0.63964221279225 0.54830336373372 0.64573143132692 0.50375959613555 0.62850898839448 0.39317626494474 0.33152976289587 0.39108856239177 0.54991739814639 0.45828465426186 0.42184676536569 -0.11397522192314 0.4163273366103 0.32594053864673 0.29707509171534 -0.068944957831613 0.19322993496296 1.0440089352216 0.84063509205432 0.63818370247418 0.86410096652353 0.57174158351766 0.71695628613822 0.63155517187906 0.80525167953929 1.1872513144672 1.2469538347166 1.6727082414176 1.4936802199975 1.4905476411651 0.93605242098774 1.4891730651341 1.4192401565273 1.4679563139285 0.99167521905648 0.88838933212146 0.91614406365139 0.89241597293119 0.97274088701533 1.3916988415772 1.4149355934073 1.3802185810517 1.3791615637296 0.96771475194809 0.79106551292247 0.88248096126262 0.92716676953313 0.8358513307596 0.84464845793007 0.72348542766068 0.72652562479299 0.82114371052354 0.90955945542203 0.76183890355053 0.85629940389733 0.85015168033819 0.81808712945637 0.72939382357074 0.76471247860325 0.78212567377238 0.7013269762 0.76403080917605 0.7455889519411 0.66438399535224 0.65953367069732 0.80302186043113 0.73083927928284 0.61546464164895 0.675363446745 0.67376349965034 0.70961365897113 0.63611985619492 0.55041355601276 0.63695491906868 0.63231568822462 0.67111986677962 0.5515724967644 0.