# vtk DataFile Version 3.0
d-2__ created by libgimli-v1.5.0-1-g5991b6ac
ASCII
DATASET UNSTRUCTURED_GRID
POINTS 3689 double
384.07394720697	-3.7722496421546	0
383.10447757684	-3.2280139034846	0
383.14733212027	-4.4198175339586	0
343.984375	0	0
344.50354585529	-1.3776320635576	0
345	0	0
299.96876078508	-2.7529250501412	0
301.33696103579	-2.9404923144094	0
300.92011981348	-1.7876462500648	0
325.80657458168	-7.6651205201261	0
326.70790228238	-7.0929394927453	0
325.72819647997	-6.8350762307372	0
283.38439244325	-1.0904828271437	0
282.69274119727	-1.7990785077817	0
283.49179495297	-2.4620014990507	0
364.11053864489	-4.9491529421693	0
363.59375	-4	0
362.97348117852	-5.2655437687109	0
281.43476307173	-0.91692983427562	0
282.03125	0	0
281.015625	0	0
280	0	0
280.42652928897	-0.91534851553118	0
344.48092189478	-4.871512450456	0
343.90625	-4	0
343.3642835031	-5.3310783535888	0
284.61305442621	-1.3608956683442	0
284.0625	0	0
324.79317542303	-4.9297229202566	0
325.3125	-4	0
324.21875	-4	0
283.046875	0	0
312.79208207486	-5.079694004757	0
313.77210926235	-4.9273746319306	0
313.28125	-4	0
285.078125	0	0
285.79105353174	-0.97717667078913	0
288.62799142766	-1.2741925766169	0
288.125	0	0
287.45484125705	-0.99691927345976	0
326.71875	0	0
327.1906118353	-1.3778649209978	0
327.734375	0	0
353.26240392133	-5.179554456138	0
352.65625	-4	0
352.01073098423	-5.4119749871423	0
287.109375	0	0
366.875	-4	0
365.78125	-4	0
366.51844957352	-5.1718915852419	0
289.64959529479	-0.92073008073961	0
290.15625	0	0
289.140625	0	0
292.69302634888	-1.2564846031554	0
292.1875	0	0
291.67795882337	-0.91630070677023	0
370.390625	0	0
370.87942138888	-1.3651109518102	0
371.40625	0	0
353.125	0	0
353.67588486192	-1.3037601294737	0
354.140625	0	0
286.61600643077	-0.72382668162727	0
286.09375	0	0
317.578125	0	0
318.12891753216	-1.2875276181496	0
318.59375	0	0
291.171875	0	0
361.79796842058	-1.3753961061276	0
362.265625	0	0
361.25	0	0
335.41193587917	-1.3488952405415	0
335.859375	0	0
334.84375	0	0
297.265625	0	0
296.62798763235	-0.98945603893151	0
297.75564137476	-1.2600743690656	0
346.54921760375	-1.3144045067362	0
345.52216847268	-1.0373450653097	0
345.54412787632	-2.4813882450158	0
293.72856585457	-0.92685791155499	0
294.21875	0	0
293.203125	0	0
343.4053407853	-1.1217809863647	0
342.96875	0	0
298.28125	0	0
295.234375	0	0
295.75765266126	-0.81573893814231	0
296.25	0	0
326.01759447612	-1.1013343683171	0
325.703125	0	0
298.79314555097	-0.91365101475126	0
299.296875	0	0
325.7687271975	-5.0205621048363	0
326.89362541338	-5.0117149605144	0
326.40625	-4	0
308.05747475298	-1.0485612899405	0
308.83885444715	-2.0403573468115	0
308.95067379609	-0.87674886467318	0
327.2524075207	-2.8753677001669	0
327.5	-4	0
294.78922279272	-1.2391938209609	0
293.7265010543	-2.1014036742578	0
302.34375	0	0
301.68037215706	-0.9945570515274	0
302.80177114103	-1.2843903458182	0
369.79347369453	-1.0485876584534	0
369.375	0	0
303.359375	0	0
301.328125	0	0
300.8150541212	-0.80931602417737	0
352.51578002329	-1.0512341568527	0
352.109375	0	0
303.84653064766	-0.93939920805617	0
304.375	0	0
316.98453097473	-1.0434396726652	0
316.5625	0	0
306.40625	0	0
306.91327282383	-1.2807233629895	0
307.421875	0	0
320.18693851755	-1.3671823412198	0
319.13291451801	-0.95180298163063	0
319.1537437419	-2.0769156712126	0
305.89829463379	-0.93431276810209	0
322.14196473652	-1.6960174328187	0
322.20224644858	-0.82129858765686	0
321.35619490803	-1.0770642736693	0
373.14802766256	-1.4773855664431	0
371.95111522686	-1.0733266348794	0
371.88437561558	-2.5293967196869	0
308.4375	0	0
329.45584280361	-1.4099299765628	0
328.27399735563	-0.98422542799764	0
328.22935029134	-2.1263576304027	0
341.953125	0	0
342.50994124713	-0.96669512473369	0
332.62976117027	-5.488441292415	0
332.96875	-4	0
331.875	-4	0
360.234375	0	0
359.21875	0	0
359.74225766656	-0.89912313760558	0
310.46875	0	0
309.453125	0	0
309.95843631387	-1.2697998933137	0
333.828125	0	0
332.8125	0	0
333.3325662206	-0.88592852986292	0
310.9832622328	-0.94333383478606	0
311.484375	0	0
334.25689008739	-1.0579541882567	0
311.9971844918	-1.2612898106059	0
311.01019799747	-2.1698241561129	0
313.0776022406	-0.96051332138416	0
312.5	0	0
299.84025360494	-1.2122401133622	0
298.80480603317	-2.0272611385257	0
319.20472407602	-3.1485349201113	0
319.84375	-4	0
320.11025572939	-2.8576479415046	0
307.76449075611	-2.0425903744574	0
306.92674231304	-2.7656159888031	0
315.546875	0	0
316.08128775572	-0.8719916511392	0
351.37678074183	-3.15636623262	0
350.46875	-4	0
351.5625	-4	0
326.05321940225	-2.5626627982185	0
325.01997009594	-6.1373084248649	0
323.93314994244	-7.3981511139828	0
325.07593750044	-7.2434903987606	0
319.609375	0	0
320.625	0	0
326.23937921365	-6.0201739376815	0
323.21186538146	-1.3144414599347	0
323.671875	0	0
322.65625	0	0
324.21599656305	-0.7833305395646	0
325.06749638823	-0.89598082860411	0
324.6875	0	0
330.78125	0	0
329.765625	0	0
330.42071315049	-0.76704581140707	0
321.640625	0	0
313.515625	0	0
314.53125	0	0
315.06044436992	-1.2919127703242	0
305.390625	0	0
339.921875	0	0
338.90625	0	0
339.54279814007	-0.98267737334567	0
340.61707284567	-4.9120782570738	0
339.53125	-4	0
339.19896705875	-5.1299738574814	0
342.76440586444	-2.2363282795534	0
337.77754854759	-5.3139938911561	0
337.34375	-4	0
336.26479502388	-4.9429818429878	0
348.046875	0	0
347.03125	0	0
347.51507984152	-0.94201970831782	0
328.75	0	0
357.1875	0	0
356.171875	0	0
356.75918124933	-1.0205572983382	0
335.35946290937	-2.8024536219338	0
336.41409504288	-2.391533070243	0
353.75	-4	0
345.47365738742	-4.9615037905643	0
346.47406472276	-4.8483417941209	0
346.09375	-4	0
340.26758248587	-1.8399037862577	0
340.42059219506	-0.86095886085828	0
366.66923661386	-1.0441737761268	0
367.88049785846	-1.4971255402593	0
367.34375	0	0
336.57572008944	-1.0868688797701	0
363.84940449605	-7.2503754416919	0
364.95897568849	-6.9350403151963	0
364.03425528927	-6.0628957741416	0
336.875	0	0
374.453125	0	0
373.4375	0	0
374.07784549018	-0.78572268647987	0
376.92353050706	-1.0106682984423	0
377.5	0	0
376.484375	0	0
337.890625	0	0
338.45409050062	-1.2119090323309	0
381.04596848875	-2.0613718025343	0
382.08047053024	-2.6459674471346	0
382.07388338095	-1.2339063031605	0
387.12636348101	-1.9803859872374	0
388.19258080717	-2.6525686756165	0
388.22294544832	-1.1900015744192	0
378.99961358044	-0.98084110181949	0
379.53125	0	0
378.515625	0	0
337.45075428327	-0.84507051501763	0
385.09642677111	-1.9611219752182	0
384.10324100847	-1.2123046563556	0
384.09536134846	-2.5675983402977	0
331.796875	0	0
332.22674852744	-1.3356705043651	0
369.12549673184	-1.8994128049726	0
370.01139152204	-2.0239791178557	0
328.04304400527	-5.0077861482362	0
360.64940072492	-1.0672375598596	0
387.02579058894	-3.2619884740359	0
386.06343113968	-2.5814318542336	0
377.95711733495	-1.3556185109255	0
377.87457074577	-2.979675876967	0
378.96044733308	-2.2422348927985	0
399.84375	0	0
400.24416898817	-1.0017225656811	0
400.859375	0	0
346.015625	0	0
398.42045755045	-1.2097403051234	0
397.35585705321	-0.91783704916345	0
397.44692005218	-2.0596787372071	0
407.47197480557	-0.90443531674975	0
408.61110920814	-0.97358094195611	0
407.96875	0	0
340.9375	0	0
341.46482771333	-1.4642417244371	0
349.58460252307	-0.96073070129946	0
350.62158383405	-1.2298427061975	0
350.078125	0	0
351.72652605411	-2.0238339610467	0
352.83289167279	-2.0669798833609	0
406.953125	0	0
398.828125	0	0
399.36968367059	-0.80826349265597	0
349.80355487915	-3.1269578024517	0
349.66875420096	-2.0636151791869	0
348.91365884198	-2.9232790253161	0
362.8374533509	-2.5266728429893	0
361.68983271096	-2.8327720247037	0
351.6137585625	-0.86563109449297	0
351.09375	0	0
324.83979347784	-2.8080679775683	0
325.28953690905	-1.8107799635555	0
324.40185735058	-1.7249891722893	0
355.66359657337	-1.2875888233771	0
355.15625	0	0
358.203125	0	0
358.68911827546	-1.3907351100213	0
282.40664338686	-0.93736973638904	0
354.66923850036	-0.9606095451393	0
349.0625	0	0
343.70916681228	-2.1260563786734	0
362.93158818173	-1.1007304468501	0
363.28125	0	0
363.86267206215	-0.92925680166024	0
364.79459247673	-0.9004922638334	0
365.72811128507	-0.90093308194003	0
365.3125	0	0
364.296875	0	0
364.6875	-4	0
365.20818825518	-5.3979947558989	0
330.86132341081	-1.6465918210818	0
331.22014365847	-0.75307065600801	0
376.71875	-4	0
375.625	-4	0
376.2817964385	-5.0929084010802	0
329.05746662056	-2.9205375079766	0
366.328125	0	0
287.61746716802	-2.293160240811	0
286.63213889163	-1.6143851323415	0
368.912901362	-0.90024784197946	0
368.359375	0	0
372.421875	0	0
290.66471086795	-1.2443549252339	0
375.46875	0	0
375.77765917945	-1.4268748408324	0
289.65863369737	-2.0269726115486	0
290.66119540732	-2.6367842797518	0
392.12937822114	-1.2128628519172	0
392.734375	0	0
391.71875	0	0
282.83871770579	-3.4521551015164	0
283.81527047496	-3.9839323297043	0
372.95125851183	-2.9637619442016	0
373.93839456215	-2.8165412388653	0
380.546875	0	0
380.02224557033	-1.2998200952215	0
381.05103693819	-0.92530537776764	0
381.5625	0	0
383.08981823944	-0.8965271388223	0
383.59375	0	0
382.578125	0	0
374.47834599339	-1.679193474405	0
354.71670155765	-2.18643312107	0
385.11293182293	-0.89053357634901	0
384.609375	0	0
353.72342346798	-2.7908477348081	0
387.15322555152	-0.87965842541907	0
386.640625	0	0
386.1195083397	-1.2105441844308	0
385.625	0	0
357.43456601394	-1.8735362036495	0
357.65207518752	-0.8683168326238	0
391.14133651179	-0.78321845031907	0
323.125	-4	0
323.73524422577	-2.7620990401212	0
322.59847009415	-2.720883441079	0
390.703125	0	0
393.21369715486	-0.92131814700725	0
321.33826418237	-2.5362950378915	0
390.20608020733	-0.89359688267193	0
389.6875	0	0
316.24273444961	-1.9745647560737	0
389.50976934464	-1.9707827908727	0
390.90833753236	-1.7790328830517	0
396.33350078224	-1.2671478669521	0
395.78125	0	0
395.28922257813	-0.92995101055204	0
365.72511473445	-2.4833355676814	0
366.67081876768	-2.1436614043248	0
366.00730220219	-1.6724167715451	0
401.38954532026	-1.315129325429	0
394.765625	0	0
360.9387420798	-2.0560418015939	0
359.90895587338	-1.9905635672259	0
396.796875	0	0
397.8125	0	0
[...]
CELL_DATA 7058
SCALARS Coverage double 1
LOOKUP_TABLE default
0.60199926482209 1.6145950462158 0.7793481361172 0.40512415808695 0.82974240531865 0.55584288523137 1.4700831664364 1.3294078983274 0.57321978093718 1.2057919652623 0.67685720189025 1.6072104225662 0.54639443107309 1.2338075089111 1.1402691223712 1.5968889095262 0.5132161424996 1.7093779785729 0.65808218261777 1.6021748473182 1.1482987174471 1.6580009331918 1.7010334408095 1.5885128064652 1.7241673701383 1.6197795834737 1.6131908087685 1.5649567132535 1.6517841291983 1.3159412249694 1.005608703282 1.6307916622381 1.3334855949958 1.6402321595904 1.6520654676632 1.6614734721933 1.6269924445537 1.1664762050536 1.579627277786 0.54966117491348 1.0925815772915 0.59599879050184 0.99422534513273 1.1583104258231 1.5500907583066 1.6959143944536 1.3890195305671 1.2053691397663 1.6455396848897 1.6130744458142 1.633845276103 1.6318629210969 1.3097350826949 1.0664062000223 1.1789272598313 1.1778121343345 1.2005221856301 1.0746181322068 1.6336536752189 1.0299271967855 1.6339068553481 0.72469159745816 1.7450811659794 1.6178325754243 1.7697033553479 1.6820040649041 1.2109277355075 1.5643640971017 1.0792593371549 1.202547982393 0.85900933257548 1.2949498732467 0.62819008587913 1.7121772772048 1.5933393541881 1.5948603788724 0.83560341327591 1.6412992406305 0.56478192275137 1.1947061485942 0.98453591164119 1.2241998403972 0.44233459064128 1.6089027999513 0.51949617625213 1.6433499826933 1.2241327807507 1.6988494545632 1.1829368537304 1.6500001894377 1.660735550603 1.662471859567 1.6282166865476 1.6311709023696 1.6499302710361 1.6681976132856 0.60539538232936 1.2976859664625 1.0268603012053 0.55548815822074 1.6610170739719 1.557665475868 1.6728207755449 0.80202581045136 1.1348725370725 0.60147554744765 1.3468930254693 0.62056065909551 1.6369859458309 1.1917517912709 1.1192839750592 1.0368924276287 0.46585802355221 1.562845537801 1.2815199188703 1.7201034370236 1.6179834494622 1.595561954467 1.0016076645769 1.3812517025526 1.306421178289 0.82872931646523 1.2066127103495 1.6774248881236 1.2840370622683 0.88285891499823 1.7032155564417 0.92986058487439 1.1588673842339 0.53867289121905 1.569842230343 0.67750709602574 0.8064883321989 1.6707801777633 1.6596664956935 1.2144637333327 1.0172043961831 1.0220630448244 1.2110674200478 1.6357249203959 1.3407966276783 0.94066484492843 1.5740346552384 1.6172842809836 1.6981408051583 0.68905632476438 1.1743228008758 0.97875540546955 0.81294693432879 1.6416798708674 1.0956929142674 0.8683377273146 1.5502277486141 1.1458717580899 1.1205158460262 1.6970585624548 1.1725291562128 1.3003824567495 1.480532724386 1.3275844272933 1.3155468247157 1.653296997348 0.85748126561114 1.2459537548834 0.94276542306991 1.6266772164575 1.1178581599158 1.3628753017997 1.1863930895511 1.5962789687072 1.3531056695201 0.66518741201708 1.1701965060527 1.1454453621246 1.6541584543548 0.60217266348288 0.84647164257533 1.1487346890725 1.5451571961516 0.94845452811534 1.6221418299148 1.2190901342914 1.7140082227072 1.6137707476283 1.5950812820795 1.6501322079378 1.3880888489972 1.5518961501895 1.0019044636697 1.6589083214528 1.015598255567 1.1254010820758 0.81463370252432 1.6173034327791 1.0777846773504 0.48729967475251 1.5813974798683 1.4860550151891 0.82389051742324 1.5337773840182 1.2661944556417 1.0513542347709 1.0667606481416 1.7457910375999 1.6237524718276 1.661321400262 1.1725876113142 1.2391889814543 1.2879101044273 1.0090725589996 1.0800896698322 1.2827573841849 0.82540025669537 1.3553046566746 1.5527717134986 1.13693003237 1.1841641818256 1.2406191417572 0.67780144128768 1.668640142341 1.3526241431463 1.0080623322334 1.6566453975049 1.0922409056507 0.92844255833186 1.19568837233 1.7091972962768 1.1725331182638 1.3090563523625 1.1857047131354 0.87777704792451 1.3247330513588 1.6640783939924 0.87607858599837 1.121662770491 1.6806746586344 1.6646717865436 1.6269481266438 1.198265522997 1.3054281008322 1.1094275984588 0.87339907368842 1.3585345106407 1.3005900621137 1.0859988158965 1.398152580674 1.0670469832903 1.256224406535 0.76623510355313 1.6817136327933 1.6044678260046 1.2525824287828 1.0657024326873 1.5470962928083 1.6501459093767 1.1263137901745 1.6818673334833 1.2489451154972 1.67769858169 1.108888604643 1.6693141158239 1.0674275043033 1.0389674415461 1.1751542925984 1.1882974232049 1.6434567608679 1.6674752968956 1.0751369339283 1.0741179087764 1.6746674975227 1.3303915726054 1.0750163074163 1.0774024959232 1.0591289542698 0.86354284030008 1.3209211214168 1.3555171217999 0.68942237671249 1.3722354394955 0.68081972404264 1.2293534974049 0.8193271092992 0.65084783989496 1.19529038905 0.87755960427553 1.660266745314 1.0444674288287 1.3825432075669 1.1736560690441 0.70795876601502 1.3125638979541 1.0920826692074 0.69565168061642 1.1503435772317 0.9812417630665 1.285975044876 1.3189962839524 0.84925415878085 1.1817753908996 1.6868594692543 1.0791092640995 1.1877557078435 1.1460026338742 1.613104526436 1.0948944563318 1.1590921814945 1.2620573278988 1.0910851818613 1.2066760756975 1.637819180954 0.81713932339833 1.6085814156809 1.018007609279 1.608934030688 1.0658194341178 1.1880869503578 1.0671264349174 1.6282560234708 0.94257416674786 1.6700358899461 1.6266041621954 1.0649187368427 1.3169118247292 1.1064894766843 1.6266312121415 0.88365249000074 1.2991979158798 1.0093327524142 0.86002779797765 1.6108130896325 0.67027765872538 1.3273729677405 0.76958688791569 0.7635673284284 1.0320168047303 1.4140707420833 1.4672546905748 1.3378606695723 0.60638562342611 1.0553384233567 1.6752756009089 0.66207435131495 0.74227444163015 0.59148850402631 0.75945637322954 1.6590836422504 0.83253534793948 0.95768790279514 1.1766956675634 0.98475075982011 0.79871940536704 1.227017083554 1.0810877064882 1.1672019001629 1.3611739862699 1.0795230166701 1.1147088087942 0.84492867118094 1.3217507224439 1.0800176146969 0.65530439551556 0.56053428722902 0.85588762595543 1.5824367697824 0.85607178305385 0.65921163731414 1.2016490991266 1.0441849854489 0.84935739656202 0.66904956035917 0.52442661256638 1.6146567817812 0.58963410344219 0.59929650279462 1.3164407815792 1.1033544977755 0.8343853102601 1.6757939431469 0.86460653991112 0.55575569762366 1.0678783308718 0.57902996963644 0.72506755761525 0.96810958663249 1.2609428537708 1.1654389059554 0.57700909570565 1.0830494650883 0.90737929692479 1.3751585412378 1.2753385016498 1.1989751162603 1.0661081886897 0.62053956056433 1.3593773193739 0.84968561083546 1.1358758905154 0.99312445037038 1.1421100179434 0.99339957107702 0.85986905465845 0.69316315640107 1.0028886641381 0.68176587875333 0.91906598218043 1.3386701156214 0.85242477874781 0.85985527060778 0.43901641332092 1.6292595925335 0.56402819102547 0.65589769814868 0.94723171118199 0.63467031676518 0.9325222076134 0.45469363519077 0.78731237455305 0.56425232755215 0.54076274898973 0.86960476407278 1.0656897125812 1.2136325480367 1.2027868316062 1.0068212543289 0.94203938012521 0.48980515071922 1.7284943365175 1.0140892838963 0.42692416361747 0.93349173281315 0.58003199747609 0.68643489485365 0.79447368009975 0.75508425425986 1.035194973203 1.4069077659591 1.1075168432677 1.1722641754811 0.85896646765629 0.85621765173846 0.91597550623732 0.99476026820558 1.647726663163 1.0708318927088 0.79778199709337 1.2342196297816 1.042020207649 1.1994888053369 1.3253786648329 1.0464539224988 1.0617812919952 0.79567780132394 0.81684233322634 1.3216330628616 1.0008869083427 0.94950245706911 0.85188781116204 1.160530914751 1.3648535619343 0.82695447676952 0.62838535196439 0.72961715740276 0.61084802998684 0.85055266175833 0.81133600058117 0.57972793453775 1.168735042924 0.72103669481159 1.3059816944395 1.0931794189908 0.77099701130862 0.65448553878661 0.94940936812105 0.83525120904767 0.65200173063059 0.53129772113727 0.95690843541338 0.79645753389201 0.63168486121996 0.79677011477451 0.59893364646484 0.39822248438862 0.58320346999029 0.61949360005484 1.1320425798313 1.2778099424413 0.87024869150552 0.60867784694331 0.71245418412628 0.61914628113118 0.596061911532 1.0802911238416 0.72186485364098 1.2724236234471 0.83227892694493 0.66270264958053 0.79155926549226 0.78894751819953 0.5039180538294 0.95866423380177 1.2087759178519 0.85861392922179 0.57351363868749 0.62115129699389 1.2892900075577 0.67606983694004 0.61695356970144 0.70621227595148 0.67572192278935 0.47964573152835 0.8113679283783 1.159576142998 0.75201051435844 0.61648555473648 0.49806094392092 0.82627565236036 0.79771566028438 0.70411269204798 0.71310051897135 0.65255971362724 0.827819150265 0.88109303184335 1.1747988628136 0.84249392761461 0.71661029719385 0.59634149830028 1.0616119508014 0.62975264108708 0.65514692067855 0.66319263615553 0.60064156830578 1.1136100214387 1.0788784538861 1.2367811506992 1.0192616125641 0.79544226684942 0.74066550667528 0.7171021215478 0.70291244265195 1.3731893908476 0.76257077596762 0.85829384094827 0.65526161020376 0.63241923411138 0.55620617064327 1.0158693212585 0.79340974341133 0.78962180409623 0.80376613310461 0.73088656855132 0.67349088583873 0.28433143942188 0.73678565235717 0.51658934681234 0.70770694162806 0.7088573237319 0.61048440547529 1.0089759497134 0.76021312151052 1.1447543131991 1.0223538776992 1.1108846030383 0.74260688889209 0.90746374198657 0.66123193209854 0.78517846892059 0.59584095514344 0.62889673026768 0.9715975042202 0.68302369982693 0.67633083227349 0.62938462459124 0.38570851923005 0.74905900531669 0.72353729879545 1.01281079225 0.85666343174989 0.44673317151018 0.72248554168825 1.0669664795211 0.66018948427367 0.79671215737738 0.6270692312197 0.63877054328961 0.64565514921622 0.68678421149034 0.59042308040195 0.64677234444 0.88747009627883 1.2593290095248 0.65432285984212 1.7290614615556 1.2195347748736 0.92871466711773 0.99648544407503 0.70276304718553 0.59917147454215 0.71949497208986 1.0824580138397 0.54237254763643 0.69469027299802 0.63312086130182 0.6443831331875 1.1367539366655 0.67336020384917 0.79284387101756 0.6032887758245 0.4135426343153 0.65335266317889 0.39347122496672 0.49813118116102 0.65029913246529 0.54090795378207 1.2088888641188 0.70193468261411 1.0982553813321 0.59123987045608 1.089104163587 0.59516766000576 0.67252751954977 0.53732937140295 0.48060132296446 0.62447624824348 0.63059472961294 0.67471266102 0.46734100740141 0.480482266047 0.62427023977545 0.98388953750449 0.9705327297462 0.68857832866199 1.0245841672341 0.52329413021575 0.80595509448272 0.80630667802071 1.0544462753695 0.60715631493509 0.56490209474511 0.62619643782869 0.10695416743457 0.70430351138589 0.56072988530339 0.59489209240623 1.0902270660636 0.59666312561987 0.59185207610417 0.68086084258253 0.78500365905585 1.0801007152145 0.68725076922373 0.67072923681623 0.88928010985425 0.52577872067803 0.77741474134726 0.91478900833981 0.37713993557061 0.35340512073191 0.65396536732585 0.53685999484228 0.59128550102315 0.69160673298379 0.74380141448773 1.034818387546 0.68129099719348 0.74677560282785 0.62688440660014 0.52336399740005 1.1160051550311 0.62912770770484 0.58487513935211 0.66241580975687 0.71140806796427 0.67287310016177 0.62521945289031 1.0275244454444 0.59091134653432 0.63091840521964 1.0353895234468 0.56800734344758 0.56977046804892 0.65481543168966 0.61953871238682 0.92021084898879 1.0653053659009 0.63269788062483 0.42975293288964 0.40136151933588 0.53901421865428 0.51566046240019 0.76825611064883 0.89995015840405 0.49520173407988 0.65394141710172 0.58310022861502 0.43449437555804 0.44416928281212 0.4837860112827 0.89427117980686 -0.21576571375894 0.59803546993092 -0.19580973739059 0.47411473283249 0.70796118964537 1.0396461186382 0.64390559407353 0.48402134455781 0.20628660714643 0.56034539723718 0.58508861316497 0.14992488569467 0.31562371884642 0.69711870560044 0.61841717079678 0.18587198866665 0.41436141503109 0.53164478462165 0.65150195020182 0.85332546433838 0.85066183851091 0.47722273811523 0.67537719905936 0.56220442394993 0.8298101963708 0.57960208237445 0.3934177997877 0.84858160411242 0.46168419381144 0.6089694348849 0.56746316321757 -0.018876252801914 -0.27883465985403 0.48905725643199 0.35844780550353 0.47551118688032 0.45470723762506 0.44137274192478 0.30357609707704 0.78351791027369 0.65526196119179 0.61252587782458 0.64698363102415 0.48680121628557 0.49560676281795 1.1035052765022 0.69482146942578 1.0034443751395 0.93213108776391 0.64437160524912 0.39794012583418 0.69271790192316 0.67061190260116 0.66716559513395 0.7354457577039 0.60292161101585 0.28562277795073 0.40690920599769 0.44590424148124 0.62374366078748 0.66599328130642 0.60941053981909 0.57536929130009 0.36077999962002 0.44040208520182 0.57680247114893 0.5118238469692 0.53326216406956 0.65188626293631 0.41639101290574 0.54293653777307 0.60421047160067 0.54224863460491 0.60065439066229 0.543516361962 0.50830338330749 0.49200222695652 0.43550634124176 0.54656039371669 0.41098493112179 0.55749914880627 0.62293132256755 1.1419318743467 0.64537516542664 0.73542955639663 1.0360287254045 0.68979798669423 0.53899676965994 0.61763400933871 0.7471885602245 0.65545524859067 0.5027840031279 0.61822424394265 0.55280978012594 0.69152702581293 0.58482082703506 0.59090171060041 0.54538232163272 0.46882595116281 0.55114149580604 0.55041032804365 0.65987158304541 0.64194623522518 0.50461990695858 0.48326076308828 0.42515745831658 0.45894438606861 0.52931219313439 0.40100689651435 0.4455997061621 0.41781158726264 0.60575152598731 0.38810969215303 0.64024337917081 0.38899425620292 1.0798487847463 0.70315516752013 0.59369142912469 0.6622921045689 0.79124333740827 0.7075405222285 0.61798234013764 0.34959956399033 0.54419388432649 0.4269232140229 1.0295283598664 0.57482954944171 0.6908962901109 0.65289640087449 0.75707396516485 0.58241152022771 0.52930436623687 0.62457889854894 0.44542086210007 0.59642890678067 1.0905269405323 0.6542084116716 0.58847069967803 0.6947625940279 0.90301390303352 0.63762062676231 0.63709897932435 0.54692274256226 0.97319910462851 0.6103197828016 0.61861044931963 0.72618040854914 0.7354635716967 0.58248549500556 0.86223278243555 0.29505023219163 1.0869368041115 1.2119693658485 1.0831839543757 0.92200446444466 0.88170337424333 0.60636327085112 0.7125715054621 0.71858025531832 0.65257679157694 0.55427710783493 0.62877504470079 0.74986117573849 0.60673897792774 0.51209990270098 0.44195557832078 0.51465840037747 0.49848640188153 0.54855443673463 0.48558062761603 0.55209941325038 0.46575735355683 0.5541972431199 0.44157107355589 0.45353836624771 0.44471542558615 0.62452537760687 0.47533761679396 0.58701801924389 0.49920077281859 0.50434997331638 0.59192595528042 0.47367913204181 0.51834311281475 0.49673484068189 0.46381271602741 0.45980484751809 0.60276980795329 0.44135429462809 0.5288164395641 0.43662451727795 0.5548183353053 0.66160115881139 0.63790009545117 0.44488786821019 0.59392143414852 0.51037807611098 0.60366288719476 0.63855549412088 0.41113688824861 0.422498883581 0.47462679120885 0.33345878070156 0.67799351655822 0.48533485925809 0.5730219109669 0.71681023148 0.4152316070952 0.53350796766328 0.40837575777559 0.38266004521544 0.43819352468019 0.42147346862794 0.44785698770805 0.48470064550008 0.43594740172135 0.59262680342623 0.4283369576911 0.35755589222605 0.60941522633352 0.62267247925655 1.1457925869283 0.80264301429661 0.5678069306993 0.46486826317729 0.4918481615355 0.49489188449812 0.55250362656195 0.54530437200726 0.85937818364136 0.61914188878915 0.50462213971434 0.57532844434674 0.56714575815449 0.53883785000116 0.69049461955647 0.52958786415651 0.38731032128968 0.47540580304239 0.41486145579817 0.43133485475556 0.81929183352061 0.72631769190779 0.72473536243505 0.55930896605968 0.59045971000551 0.57698543048189 0.5860890508629 0.55169934374889 0.64407657674234 0.57049182721511 0.52145373988001 0.67967988739966 0.51343860304501 0.49831765509364 0.52090400356393 0.60328968382268 0.48490531140011 0.55792465069871 0.45121775072447 0.49727214784918 0.43888018812963 0.48257914222868 0.49188229973951 0.38195351878342 0.44363066482089 0.5337007775174 0.38523184647592 0.6874419755522 0.47909593975002 0.54353032521542 0.43994939854505 0.50270303103283 0.41791456880995 0.52690225587338 0.43981102187454 0.42222327975667 0.41417168539924 0.41664283702699 -0.0090449000754016 -0.14881017444692 0.38522392560125 0.4682655522696 0.20106527701003 0.44570107260871 0.41183194309154 0.48445262116418 0.3624655938931 0.61863731586314 0.76334959504409 0.94627787932013 0.68398949753457 0.68463345908639 0.43155788653867 0.5952432792238 0.60192056151166 0.56528351129217 0.66578710042155 0.6169960348006 0.43289167942954 0.41660354887229 0.68843777125822 0.60109155874306 0.54828472528929 0.71902124705795 0.5135028880267 0.42002119948491 0.49318861861215 0.63191816577992 0.45948946974911 0.53169438456748 0.63281621186905 0.59605223311565 0.53107971084071 0.6798379364088 0.55463107408974 0.59996392096996 0.42805306867106 0.43630679568959 0.49556172892379 0.4259046367356 0.31341375540358 0.37522381049166 0.84325191899706 0.54872447073671 1.0440988702354 0.84835986571552 0.68133758725956 0.50353993030586 0.50327036776076 0.48413906104898 0.58008466569503 0.42120847137171 0.38980508654863 0.5401717458051 0.42955366631391 0.48639426555677 0.61158987465329 0.65931672606288 1.0142058325996 0.89104418724199 0.65774115022561 0.66626986210563 0.50835798042797 0.47657477602472 0.51695558430546 0.45965822597134 0.54457699967272 0.44483241986906 0.42007436028128 0.47363200351449 0.3553932829828 0.45540555883977 0.47517128996288 0.42490849978582 0.41049482947921 0.40010287246422 0.44244166345235 0.33000306208484 0.58529084525991 0.64203150316176 0.60986949457644 0.35251935535292 0.47917060960315 0.65536630256368 0.7144460938521 0.79190841861547 0.50449311829043 0.47074796189793 0.4836426122037 0.4591929860317 0.40016624549158 0.39507115042124 0.48121296923238 0.34689876879755 0.33890712055866 0.63146188897086 0.4869827915243 0.45951807371266 0.38671765868681 0.2706879023852 0.43723918256425 0.46667554817523 0.435941306626 0.36311021423633 0.40038288848853 0.41736872618782 0.38204013446024 0.39454898847014 0.3387845566512 0.43737194580638 0.41418304541119 0.29192623337376 0.40541495978972 0.37262797880387 0.32930399567666 0.44775540728259 0.45608911028982 0.43290172977076 0.34088159724729 0.29812740073895 -0.0033168336983302 0.36157261609338 0.29192915592248 0.36705061822611 0.47021555737418 0.44518943012929 0.36806058328777 0.42382760370556 0.42891010324117 0.39880610949603 0.48702307243709 0.47490522483597 0.39068364071136 0.51437784155025 0.31145751389933 0.3167537761654 0.42921156914752 0.49723360568021 0.35383933931261 0.39618962950412 0.060569480183362 -0.18578035690663 0.42730972628245 0.45337809031701 0.50663815615439 0.55849088242296 0.39039789688939 0.44365262301402 -0.17787302858293 -0.19227820256047 0.52109195339918 0.46405911596586 0.46881715907121 0.40275551312362 0.47703051222739 0.47258967070024 0.49064388661754 0.41402953698555 0.47263863897109 0.45393570283628 0.44063410951561 0.49284833672121 0.38951906937002 0.50366810161624 0.39203800973831 0.43411156832603 0.40066157881677 0.48584936706514 0.5445536630088 0.46011724939131 0.42029958251209 0.36152966500764 0.4486630324402 0.37521140917024 0.35459969197668 0.40202623924233 0.44570073779564 0.4623815780488 0.41036889497453 0.41445838157362 0.42605104562683 0.46657930299882 0.63535637338817 0.65384184072817 0.65535612427463 0.38913143193719 0.65424280028149 0.46178847429547 0.36935869058814 0.44679738741983 0.3004851453314 0.33166793861998 0.56740327247566 0.29063948918892 0.62274498941126 0.38489943408985 0.380069897031 0.4360688368174 0.46222244052823 0.4728301228787 0.41378176120173 0.34685517883282 0.45361535521338 0.39942652191497 0.46468195959594 0.52374024410416 0.52192717786982 0.47118892059347 0.41112925146125 0.42014273775956 0.38110852903029 0.13401033728096 0.2659724065092 0.70809799647665 0.58918580805169 0.59239072041909 0.36274429132477 0.38329385476252 0.34973580055319 0.39632961698629 0.40627730089689 -0.10613149908771 0.36511096853037 0.45