# vtk DataFile Version 3.0
d-2__ created by libgimli-v1.5.0-1-g5991b6ac
ASCII
DATASET UNSTRUCTURED_GRID
POINTS 3056 double
16.047984885364	9.2005108665658	0
16.227640130622	9.31797770521	0
16.052808675398	9.4151062914457	0
9.6856707273838	12.779965388042	0
9.5840448320983	13.008863982168	0
9.459889155087	12.888340064957	0
9.4017034496321	12.989518397958	0
9.4966291044861	13.057428275285	0
9.409213376874	13.105992568403	0
6.9615730037337	14.465792775704	0
6.8666473488796	14.397882898376	0
6.9945996683525	14.319328169198	0
10.283370652996	12.620349637225	0
9.9337077425469	12.814606809696	0
10.035333637832	12.585708215571	0
10.370786380608	12.571785344107	0
10.246630703596	12.451261426896	0
3.2	14.888006064741	0
3.3935321886838	14.815842352641	0
3.3	15	0
10.363276453366	12.455311173661	0
3.05	14.894536113346	0
2.95	14.834347813918	0
3.0997032337695	14.698789777549	0
22.54986393823	5.4610590293129	0
22.601478319067	5.6563101371606	0
22.484832569298	5.6522603903955	0
7.8357302798552	13.980149844525	0
7.7483145522431	14.028714137643	0
7.7115746028439	13.859625927314	0
8.7098875559768	13.494506913346	0
8.6224718283646	13.543071206464	0
8.5857318789655	13.373982996136	0
21.698091020789	6.0893390284563	0
21.734830970188	6.2584272387846	0
21.639905315334	6.1905173614571	0
4.9002967662305	14.698789777549	0
5.05	14.834347813918	0
4.95	14.894536113346	0
8.5275461735105	13.475161329137	0
8.5350561007525	13.591635499582	0
23.708017310135	5.0679061559452	0
23.57570494199	5.2584272387846	0
23.492391392804	5.1534065041647	0
7.9373561751407	13.751251250399	0
5	15	0
4.9	15	0
25.208739718026	4.888006064741	0
25.308739718026	5	0
25.108739718026	5	0
6.7500015991102	14.393833151611	0
6.8150329680421	14.202631790528	0
7.6608988246309	14.077278430761	0
7.653388897389	13.960804260315	0
12.90584248136	11.163420843689	0
12.869102531961	10.99433263336	0
12.993258208972	11.114856550571	0
14.304494123155	10.386392153803	0
14.40612001844	10.157493559677	0
14.654157033603	10.192134981332	0
11.237433729487	11.969668242483	0
11.18581934865	11.774417134635	0
11.36538604896	11.891113513304	0
11.120787979718	11.965618495718	0
11.885664010266	11.385614544848	0
12.082360983452	11.431411271421	0
12.024175277997	11.532589604422	0
13.080673936584	11.066292257453	0
12.98574828173	10.998382380126	0
13.867415485094	10.629213619392	0
13.77248983024	10.561303742065	0
13.830675535695	10.460125409064	0
10.909490913954	12.100065284392	0
10.844762499738	11.765076855645	0
12.934133900893	10.803131272278	0
3.6	14.810067208388	0
3.7	15	0
3.5	15	0
12.657805466197	11.128779422035	0
12.556179570912	11.35767801616	0
11.244943656729	12.086142412928	0
11.157527929117	12.134706706046	0
1.3	15	0
1.2	14.888006064741	0
1.4	14.810067208388	0
1.9	15	0
1.5	15	0
1.7	14.849260526121	0
12.119100932851	11.60049948175	0
2	15	0
2.05	14.894536113346	0
2.1	15	0
12.031685205239	11.649063774867	0
1.0997032337695	14.698789777549	0
1.05	14.894536113346	0
0.95	14.834347813918	0
11.332359384341	12.03757811981	0
5.7	14.849260526121	0
5.5	15	0
5.503868896942	14.598288840263	0
4.064468339761	12.492321883392	0
3.9817116885018	12.918420923089	0
3.7670358212135	12.67328000924	0
13.779999757482	10.67777791251	0
25.602637769837	4.524993056905	0
25.708739718026	4.8492605261212	0
25.458739718026	4.8343478139176	0
14.734062833973	10.027096517768	0
14.682448453136	9.8318454099206	0
14.862015153446	9.9485417885899	0
-0.24940646753892	14.834347813918	0
0.05	14.834347813918	0
0	15	0
15.804771660235	9.3804648697915	0
15.703145764949	9.6093634639172	0
15.578990087938	9.4888395467067	0
29.767533861964	4.3398980943704	0
29.508442951795	4.548348532907	0
29.495546029131	4.1485808085627	0
0.1	15	0
0.3	14.849260526121	0
27.458739718026	4.8945361133462	0
27.358739718026	4.8343478139176	0
27.508442951795	4.6987897775495	0
0.5	15	0
16.678928936356	8.8948219386129	0
16.4287009421	8.6628888321103	0
17.028591846805	8.7005647661415	0
1.1	15	0
1.95	14.834347813918	0
20.105956534257	6.4151422964054	0
20.247470662652	6.669867727517	0
19.925330046586	6.7203171073957	0
21.501394047603	6.0435423018831	0
24.087916739041	4.9470663132613	0
23.750549209437	4.5440302871062	0
2.3	15	0
2.2	14.888006064741	0
2.4	14.810067208388	0
26.308739718026	5	0
26.358739718026	4.8343478139176	0
26.408739718026	5	0
25.008739718026	4.8100672083876	0
24.908739718026	5	0
3	15	0
2.9	15	0
1	15	0
21.472583787351	6.4041201181382	0
21.297752332127	6.5012487043739	0
21.301387084399	6.2885606170178	0
19.199774869435	7.6667917392027	0
19.112359141823	7.7153560323205	0
19.104849214581	7.5988818618751	0
6.1791038580454	14.704649136022	0
6.0874157276122	14.951435706882	0
5.95	14.834347813918	0
6.8741572761215	14.514357068821	0
6.7867415485094	14.562921361939	0
16.402471585846	9.2208491189743	0
16.260666795241	9.171513098704	0
16.394961658604	9.1043749485289	0
6	15	0
28.922845333402	4.5823118347521	0
28.708739718026	4.8492605261212	0
28.602637769837	4.524993056905	0
4	15	0
3.95	14.894536113346	0
4.05	14.834347813918	0
28.108739718026	5	0
28.208739718026	4.888006064741	0
28.308739718026	5	0
7.136404458958	14.368664189468	0
7.1315806689246	14.154068764588	0
7.3112359141823	14.271535603232	0
23.945942620228	5.1435706882137	0
23.403806383266	4.93902940218	0
3.9	15	0
4.1	15	0
27.608739718026	4.888006064741	0
27.80227190671	4.8158423526409	0
27.708739718026	5	0
17.36404458958	8.6866418946778	0
17.356534662338	8.5701677242324	0
17.451460317192	8.6380776015599	0
5.3	14.849260526121	0
5.1	15	0
14.617417084204	10.023046771003	0
5.9	15	0
6.5387045333462	14.528279940285	0
14.998996154018	9.7832823839802	0
15.178651399276	9.9007492226244	0
15.003819944052	9.9978778088601	0
4.3	14.849260526121	0
27.508739718026	5	0
16.453147364059	9.0031966155281	0
16.256450390874	8.9573998889549	0
22.871235429146	5.6270914282524	0
22.72943063854	5.5777554079822	0
22.866411639112	5.4124960033725	0
21.122920876903	6.5983772906097	0
20.948089421678	6.6955058768454	0
20.981116086297	6.5490412703394	0
1.8827233936571	13.413209492963	0
1.635985724768	13.057931042977	0
2.0585343714792	13.116469985366	0
13.63397856251	10.414328682491	0
24.321832839145	4.8833962425865	0
24.408739718026	5	0
24.316180298466	5.0287141376427	0
24.708739718026	4.8492605261212	0
24.508739718026	5	0
24.458739718026	4.8343478139176	0
23.483145522431	5.2871413764274	0
9.2631921819019	12.842543338384	0
25.358739718026	4.8945361133462	0
25.408739718026	5	0
25.508739718026	5	0
12.206516660463	11.551935188632	0
3.1	15	0
12.308142555748	11.323036594506	0
24.679068235604	4.239790780138	0
25.006267059794	4.3425605622482	0
24.599747236054	4.5734506034563	0
22.521572518697	5.8213486007239	0
22.608988246309	5.772784307606	0
11.502367049532	11.725854108695	0
11.68202229479	11.843320947339	0
11.507190839566	11.940449533575	0
10.491228772839	12.376756444483	0
10.633033563444	12.426092464753	0
10.45820210822	12.523221050989	0
22.696403973921	5.7242200144881	0
23.395729794819	5.3357056695452	0
23.358989845419	5.1666174592169	0
2.8061019481889	14.524993056905	0
2.7	14.849260526121	0
26.108739718026	4.8492605261212	0
25.908739718026	5	0
0.9	15	0
26.458739718026	4.8945361133462	0
27.308739718026	5	0
27.408739718026	5	0
29.358739718026	4.8343478139176	0
29.408739718026	5	0
29.308739718026	5	0
26.508739718026	5	0
27.108739718026	4.8492605261212	0
27.214841666215	4.524993056905	0
28.408739718026	5	0
28.358739718026	4.8945361133462	0
28.458739718026	4.8343478139176	0
28.508739718026	5	0
21.923872593085	5.9809643515411	0
21.8222466978	6.2098629456668	0
26.708739718026	5	0
26.608739718026	4.888006064741	0
26.808739718026	4.8100672083876	0
28.908739718026	5	0
29.108739718026	4.8492605261212	0
14.056457107991	10.351750732149	0
13.954831212706	10.580649326274	0
29.658146185565	4.8343478139176	0
19.54461398985	7.2579391418513	0
19.724269235108	7.3754059804955	0
19.549437779884	7.4725345667312	0
21.647415242576	6.3069915319025	0
13.250681601775	10.754568246337	0
13.430336847033	10.872035084982	0
13.255505391809	10.969163671217	0
9.2674085862685	13.056656548133	0
16.489887313458	9.1722848258564	0
16.577303041071	9.1237205327386	0
17.626291772416	8.5409490153242	0
17.484486981811	8.491612995054	0
17.621467982383	8.3263535904443	0
21.284504402929	5.7190625713937	0
21.673644598829	5.7490312450385	0
17.276628861968	8.7352061877956	0
16.926965951519	8.9294633602671	0
17.239888912569	8.5661179774673	0
18.11404618869	8.0804750462887	0
17.902749122926	8.2149218349628	0
17.83802070871	7.8799334062158	0
18.238201865702	8.2009989634992	0
18.150786138089	8.249563256617	0
8.5612854570062	13.033675212718	0
9.0547266763919	13.085654315995	0
8.8115134512622	13.265608319221	0
14.741572761215	10.143570688214	0
9.2343819216497	13.203121154639	0
9.0595504664254	13.300249740875	0
9.4354427331278	12.548032281539	0
9.6630878033521	12.327490919146	0
15.615730037337	9.657927757035	0
15.520804382483	9.5900178797075	0
9.9706052236163	12.250719786823	0
14.828988488828	10.095006395096	0
15.528314309725	9.7064920501529	0
19.986516417945	7.2297131011419	0
19.949776468545	7.0606248908135	0
20.073932145557	7.181148808024	0
20.175558040842	6.9522502138984	0
25.309036484257	4.6987897775495	0
20.860673694066	6.7440701699633	0
20.853163766824	6.6275959995179	0
22.273535503534	5.7867071790697	0
22.208807089318	5.4517187503226	0
3.1317176073544	14.309812537406	0
20.736518017055	6.6235462527528	0
19.891590763091	7.1618032238144	0
19.899100690332	7.2782773942597	0
28.008739718026	4.8100672083876	0
27.908739718026	5	0
18.23069193846	8.0845247930538	0
28.309036484257	4.6987897775495	0
27.895939159663	4.4709363375124	0
28.265207298324	4.2898533340251	0
18.988203464812	7.59483211511	0
23.147692779655	5.301064247891	0
23.04606688437	5.5299628420167	0
19.024943414211	7.7639203254384	0
20.773257966454	6.7926344630811	0
20.423595056005	6.9868916355526	0
20.525220951291	6.7579930414269	0
18.325617593314	8.1524346703813	0
22.171909608248	6.0156057731953	0
18.358644257932	8.0059700638753	0
18.500449048538	8.0553060841456	0
13.113700601203	10.919827650947	0
18.179077557622	7.889273685206	0
[...]
CELL_DATA 5825
SCALARS Coverage double 1
LOOKUP_TABLE default
2.3159297074913 2.322679234754 2.8586696673921 2.3388119221104 2.3314320666405 2.8475174098652 2.1555849484154 2.2910286436912 1.8679004276037 1.9180857728792 2.7520527625561 2.8033951825629 2.2622813239193 1.8905015880044 2.8448688459005 2.3267408526601 2.2531280193431 2.7620498421203 2.415645285297 2.4258627544138 2.2114315399182 1.9341929270194 2.7925513925801 2.8814928405299 2.3633888944924 2.2233554871774 2.0477049107847 2.0572391049762 2.9122634631434 2.4374428134823 2.129925112089 2.3546855513027 2.067219775458 2.1211047539485 2.3538730182433 2.8536026411198 2.0607577767569 2.1240083685159 2.4198899949712 2.7300365603865 2.8861461071012 1.6418534099427 2.8840413940346 2.3342692386951 2.036503272179 0.75489414032902 2.9234409138588 1.9381949248485 2.2826865255133 1.4227662528715 2.374141436297 0.79640834504448 2.1378041832746 1.7382621430183 1.7071019719099 1.7614477866782 2.1568609313021 2.2138206181994 2.7180236055887 1.7759139647632 1.9344093168629 1.9601717439479 2.1252403841543 2.6690460957005 2.0965070967495 2.7457855872062 2.1517055657256 2.7357903346181 2.1902365386016 2.0087565600106 2.8698093426098 2.046641791872 2.7770518062741 2.4648703297588 2.4140828977855 1.6201363686955 2.1743194063308 2.1741489222214 2.1440451866072 2.2151881578684 2.2452715407284 2.1094322547 2.7720589933233 2.7331894906139 2.0006477639696 2.9037763823793 2.2086826332652 2.073521425684 2.475637294984 2.2957811738766 2.3092648048516 2.2348696569071 2.1673468070616 2.0523199238615 2.1822867525188 2.3756694869766 2.3473449784031 0.73305685765864 2.0748343223721 2.8134153866833 2.2585816110821 2.8582503981558 2.0311687883285 2.6991315742414 2.6856812219318 2.860851135355 2.1014714563537 2.7665159926146 2.359339892513 1.4928694316833 2.7852732911521 2.2896011135476 2.8212896394392 2.4164421281551 2.8183042213503 2.8253021178779 2.0012601219473 2.3252055668977 1.9369249458048 2.0924573355319 2.1885142586495 2.712754101573 2.1441040512269 2.6603899063415 2.105362446954 2.7136568613726 2.1267118685959 2.2681500914697 2.7159446508059 2.2492836445842 1.8315667331004 2.1919219531558 2.6831502764968 2.2739063458075 2.048922456417 1.8437124607415 2.3875230182155 1.5715123238579 2.6965135497763 2.0704487981961 2.8027726485911 2.2261567183973 2.7245879661147 2.8281010018315 2.3063815926091 2.4393650825792 2.8780407899212 2.3700410728975 2.3082101220598 1.704465360595 2.3461170673562 2.8721341353915 2.897337576924 2.0652120888482 2.8519927317067 2.0953302871478 2.8878347375061 2.442608648674 2.2831522007668 1.9386883336432 2.3862636106232 2.1308546429782 2.9257854260433 2.3167471112329 2.8745102607469 2.9021621878699 2.7867487153401 2.2999563150245 2.4295327468239 2.8066156013312 2.8299430431586 2.3226240924094 1.7818956184217 2.8734294400691 2.8396635403058 2.3049213980648 1.9843257155284 1.6054092529349 2.3782767392575 2.8621186762541 2.0948050788819 1.9580357017849 2.3150826777799 2.4293664523762 1.4060626941753 2.1654983110023 2.4099489060321 2.2214702612026 2.8368971854099 2.3199585320718 2.2659581363911 2.8872627766179 2.9085246479837 2.3823138306612 2.2255609104861 2.4155354222394 2.8050496231973 2.2432503613799 2.0299494605159 2.3026810516886 2.2952062880044 2.0340592488397 2.3075881469308 2.4091195316067 2.2772120881279 2.41499459638 2.4423716531199 1.7947909708581 2.2464926678471 2.2776512333125 2.2752555447445 2.2788712131552 2.1646670056387 1.7560293815345 2.196839251634 2.3332991096427 2.3876861755355 2.0421469848934 2.4297179841104 2.4496980470942 2.4818235089045 2.4401604471853 2.4667309532782 2.2652106870057 2.3685118524183 2.0153758156802 2.389000290479 2.026401008621 2.1867201908446 2.3367559145483 1.8887783473455 1.7968126133989 2.2079060114392 1.9884991673481 1.9952514430119 2.23102547355 1.9125987346483 2.0516497648408 1.5329299415341 2.0945282757867 1.5174521850784 2.0564598153375 1.938840547188 2.3348936660073 2.2159198699012 1.7491860458419 1.9617913962606 2.2328597083021 1.9850245664526 2.4344487495796 1.8549717132149 2.0194007179827 2.2510645201841 2.1859928369549 2.3036600832778 2.0011506563885 2.0490808494343 2.0725903141433 2.322189893594 2.2607412786832 2.2643745438038 1.9816986884489 2.2079927523002 2.2376539124872 2.3834339638276 2.3470422381277 1.9006294923656 2.4122908046322 2.1706159209334 1.9024925253034 1.9220865363855 2.3130164265056 1.4982544191206 2.0751877466962 2.1904143908303 1.4909453434179 2.2608810688386 1.4761078292022 1.8621489434387 2.1764151280033 1.6078401165855 2.0112025328395 2.4431951606388 1.8830328362533 1.9669557081648 2.1972351448574 2.0937096171801 2.3161172485352 1.9743959896492 2.1945382671077 2.3603996839424 2.2542304708867 2.2980395255409 2.2987437187395 2.4556303487581 2.4243191012312 2.1479327595836 2.2122618552147 2.3268187778204 2.3032025085548 2.4603556365386 2.4314597024942 2.3194905099151 2.3122922641337 2.478429445051 2.4483710907155 1.7551891386007 2.3631063449696 2.0791287567216 2.3993858555445 1.8205343407463 1.7420709207129 2.0729715125008 2.216128180515 2.2893545973901 1.8808658814112 2.2177929373898 2.1063617996707 2.1413387300286 1.9396723836645 2.30751888622 1.9338886858662 2.2567965336316 2.0131465343053 2.3563062336005 1.9867909290235 1.9807571214191 1.7850597641225 2.2195873651875 1.8643748728922 2.2410551731275 2.2733308677722 2.35449461548 2.1459519387229 2.1953457696066 2.1367470394217 1.8813047287148 2.0903147372748 2.4457214271062 2.1072627522369 2.4582171765952 2.1418857393912 2.434115991503 1.9724767387216 1.8086113125163 1.7797004683703 2.0598476184621 1.8195728399171 2.1468141142368 1.9883834639638 1.9230676262276 2.153404983487 2.1267447635492 1.9890875897195 2.2326303837621 2.235519568911 2.2369813135269 2.0614897455414 2.4263530335912 1.8878540625378 2.2093381139851 2.2608342488393 1.9297787220075 1.8477386750454 2.1230744495197 1.9867619440787 2.0024115996599 1.5720861411458 2.0144551424988 2.315132072916 2.1351540675875 2.2429429253614 2.1103666408041 2.0241640806074 1.8423052048077 2.3412242933654 2.339769985023 0.6176549996972 2.2320394231227 1.0203673573553 2.3687988672906 2.289527106703 2.0866635968878 1.8911006664494 2.3061893478899 1.9972462162288 2.1126468393068 1.819173996581 2.1555740910432 2.0091376705244 2.0293577874497 2.2559651064991 2.2884520576035 1.928589163779 2.3046933162244 1.9072185612932 2.0379787338318 2.1469844795462 2.1627522685471 1.9765576854765 2.3272383553975 2.2496132033533 2.2720160065862 2.1947928726626 2.3008232164533 1.9449418448382 2.3636516518105 2.2418373243104 2.0508736899703 1.2667161752891 2.1116037391775 1.7827606496796 1.7273415699607 2.134211332722 2.1310837566748 1.8346015153505 2.0901700937041 2.110481557536 2.0420151975144 1.7448099191352 2.1220638263692 2.007375966245 1.7834856273522 1.4922657611589 1.7972132181246 1.817850129357 1.7815444116782 1.9747690273079 2.3591990237167 2.2542389823591 2.1349086632475 1.978125831397 2.3825082633969 2.215060746609 2.1064174138706 1.8695144798352 1.7541943483059 2.2456868155429 2.1315565747719 2.0476249271268 1.9954283423388 1.8149748785528 2.3825225857382 2.2368682699796 2.1376079200068 1.9137450926154 2.279856011941 2.1611667017574 2.08791571863 1.1901599622612 1.211364572975 1.5151250805374 1.2982145288031 2.2461274391858 2.1260641160849 1.9513399894176 2.2082485340874 2.0792497778372 2.19647088284 1.9713567402579 2.0349707865877 1.9766159660015 2.2028344675769 2.1424756628728 1.967040762285 2.2495867226993 1.9733822821623 2.2246765285329 2.312344730592 2.2122789269949 2.0327448717523 2.2625255641716 2.118639737491 2.2368976227258 2.0427076148279 2.0047035747428 2.0476600645309 2.3150231635179 2.242197331935 2.062481154138 2.247505405127 2.1215840755896 2.2281171851629 2.3281568012969 2.2254398745658 2.0426479220491 2.2753736213583 2.1191131567475 2.2397526863214 2.2534309936524 2.0245057367145 2.2224952794686 1.995691293015 1.876246635381 1.6356059317737 2.0760957517636 2.1349010569277 2.0526161148585 2.081677032186 2.0628641479821 1.8880590506693 2.0719013414098 1.9837556009806 1.7307591520183 2.1144801077924 2.0885375645087 1.8644329406714 1.935293507935 1.962290144575 1.8513771533873 1.9031083827015 1.9169399660342 1.734238121507 1.9864406066467 1.9651337427589 1.7469361230204 2.2424045705251 2.1283601781773 2.2203676226157 2.1303906132063 2.0258164487058 2.1101599042675 2.2153865149061 2.2023476377632 1.9731989585365 2.2351778796044 2.2113512565387 1.9835633317903 2.2616304886795 2.2003406161645 1.9498871878363 2.1754446075297 2.2423489291069 2.1450322120211 2.1874755097109 2.1905299830094 2.0152021521393 1.8117109621781 1.9794347485057 2.0215127532512 1.878972453011 1.7292146864132 1.4812830570799 1.8644074559445 1.6019664981756 1.5059303358861 0.70478918827889 1.9915793904918 1.9270926445805 1.6832620175118 1.3978958239719 1.6185788161046 1.7093719115579 1.7988770340897 1.9561957428053 1.5843880265488 1.7186526892196 2.102264526329 1.494503638134 1.9962867895944 1.3889412026311 1.0976969172087 1.7407512640546 1.6732843476352 0.53296617077281 1.7886786328805 1.7212175304426 1.8032114285646 1.636498882526 1.7633474763278 1.6696534720351 1.604936895508 1.6614224243863 1.6815886358248 1.1015669748361 1.7584368726853 1.8932213477346 1.4001551100838 1.7984585295317 1.8084647167412 1.7976102167918 1.5515480192911 1.8066609383824 1.9304823010026 1.8363385911771 1.510578985163 1.8288088635295 2.0592283183906 1.7868274805453 1.8104482969897 2.0460085753017 1.966288351466 1.6918729163714 1.457345976327 1.7174837450406 1.4521383305701 1.3688242351616 1.5697144299457 1.7947829932139 1.4260309171199 1.5414338645148 1.4080503690131 1.5059316091145 1.3920761008927 1.272447179427 0.99821877462606 1.2575234055629 1.3654100104271 1.1976264520757 1.5454406268921 1.5145884444773 1.792326254736 1.3911305440835 1.7507498925485 1.725703683434 1.4878134318519 1.7428336782493 0.52417420009676 1.0760415968905 1.3901440199516 1.1313161213852 1.1566867889285 1.5344145468121 1.5024367112471 1.2093139084117 0.51736584908536 0.91547506942976 0.42795619054967 0.55909116812223 1.7196142633325 1.7834446782074 1.6504695819785 1.5118947680429 1.6324132620761 1.6189563947978 1.2658263024635 1.0617675386598 1.4305027526241 1.8734802184171 1.2653554124779 1.9193957864153 1.323068362215 1.2153365993941 1.7858684827571 1.5185630756069 1.3870248276883 1.4848395627592 1.388350803129 1.5074701768365 1.7179320137884 1.4035336046265 1.3398074021685 1.3603802595848 1.7741938043081 1.5039808367337 1.444647507453 0.90442462816184 1.7968562700107 1.5688573413553 1.5675208522385 1.4144590796468 1.7829103942212 1.5157210148208 1.3216247316295 1.4002506539662 1.3506684800151 1.5426692861845 1.2770483831308 1.272113096672 1.5199664684931 1.0828136973206 0.87465257392697 1.004999864994 1.73737320341 1.4609597379997 1.7374528982973 1.5179166638331 1.7711062842068 1.3669027334839 1.7265470419684 1.3389410014799 1.475388148169 1.2734219717796 1.1651776224048 1.5526800942029 0.9840957742915 0.46337775538869 0.93570185806535 1.0236315477292 1.3370982297169 0.97086015909888 0.55865044807571 1.2138677579477 1.2266755446015 0.15488257186407 1.4728075657142 1.2392779864873 1.3143265701321 1.2018718683711 1.4589653807601 1.2906328637521 1.5350016137585 1.4368935782687 1.3504856465502 1.1918312754759 1.5074181693848 1.3828037282908 1.5755677235386 1.3878076098999 1.4117415543998 1.4253629506323 1.5747838400368 1.4013818465293 0.83071375183382 1.4186008182906 1.3397418393782 1.3871490300947 1.0392848030909 1.3468449684885 0.91180488710829 0.99618605802403 1.097537803877 0.63792849768666 1.3600658083176 1.1540827254408 0.94037069899611 0.86175841974213 1.4537329403475 1.4113459921782 1.3249511086035 1.2890391204986 1.4690679226695 1.177368361285 1.5239881635044 1.3285029385835 1.4037434540143 1.2628634511585 1.5905986005891 1.2927278350398 1.5975462083205 1.4096234630269 1.4007652245227 1.4375760236077 1.6014040368801 1.3910021583336 1.3958184519331 1.4187593673965 1.2500592679284 1.0721317889336 1.3451468235065 1.3326745334897 1.3597468978479 1.3145647775841 1.2978767094852 1.5984060741551 1.5401047311989 1.3248432773216 1.326766894312 1.3851815268308 1.9054787104501 1.4988158991761 1.2611391895608 1.3408644688402 2.0693835252535 1.5801535330491 1.427686783357 1.3439427984759 2.0795398742933 1.5659113950161 1.4034955908115 1.2966790078327 0.91884641951438 0.89523437364049 0.94240237542275 1.2967482438657 0.63159143059515 1.2683584206578 0.85855899895798 1.2874833094446 0.83213247324204 1.9688949810329 1.5473255696441 1.231688611813 1.2462151587828 1.8716894758749 1.4886407044172 2.0743328474707 1.8160695234312 2.0615163798205 1.8302393021245 0.7077723948199 1.1868822504837 1.3225699976092 1.1614483325538 1.0534597998286 1.1846811809114 1.2649945607923 1.4766011150585 1.197528208626 1.2759076460309 0.84511936550391 1.08776272645 2.0080901327919 1.7344434105173 1.4651065050358 1.2245438661276 1.1172165762048 1.2700773773459 0.99461534175933 0.25085670480728 0.70356024602802 0.57006911007729 0.84750018852521 0.53417082363611 1.7438652215395 1.6584097835568 1.2645642272441 1.2306211737721 1.3079014927218 1.2109049220191 1.2241526273534 1.2600838997429 1.1686267987976 1.1967109776403 1.1325985835109 1.2967841505421 1.2667470843048 1.0921768135017 1.1988450248858 1.1857704712168 1.1782257889537 1.1013964536392 1.1116814827258 1.2703644908919 0.80711679668911 1.3812051161285 1.0507754093604 0.94205156921815 0.89680217078311 1.1685207811421 1.129313780165 1.2666272616651 1.4644521568358 1.38926093938 1.2528957533102 1.2432490669658 1.2851611695784 1.3797343688629 1.1997649065949 0.85678589250518 1.0558449369732 1.0548892387368 1.1930917682778 1.0932645287885 1.2334793464169 1.177083994411 0.96822160970386 1.0683581608448 0.9499355593682 1.0047760848795 1.18548190323 1.3027864700198 0.91762111205565 1.4093412756283 1.3765901510755 1.385660981813 1.131609635405 1.0621774632185 1.1318113497699 1.1854603029734 1.1269153914423 0.97321799809693 0.88708034652263 0.93822025322842 1.3718552911273 1.3773371763054 1.1131062653148 0.95358975117418 0.8420078977582 0.90630872320546 0.97721492223929 0.87900823214443 1.1175649664927 0.91853896542069 0.95115846189173 0.8147970811686 1.0710393315946 1.3549545729264 1.0817777210206 1.2824449313111 1.2632448889055 1.6720994586456 0.92041967937048 0.79247867273787 0.53261125359677 0.67164764022618 0.82760005536957 0.83135377776443 0.70908121990558 0.73713713395123 0.84963778361967 0.91653809479987 0.76210370712763 0.81757995176858 0.8592401987136 0.94229658022442 0.84644876254596 0.9887237587032 0.97220550639392 1.0624753578381 0.71262419373479 0.70719175295877 0.93675762588264 0.9559497333157 0.81505457894026 0.91574792663968 0.81511603233335 0.8058685509171 1.0814990542555 0.78331511629792 1.0964906925134 1.1385275745012 0.86394780348012 1.0983126608324 0.7244645656475 0.7574150566888 0.82584836359411 0.83104300224846 1.0444933485048 1.3762597285237 1.4038894946646 0.78435539203527 0.75714878787432 0.78437977903544 0.92185526230602 0.85107515400562 0.92109142591399 0.77496914553772 0.79061911252558 0.78378618326862 0.83471773561201 0.83145780004428 0.72127199586542 1.3935692799775 0.7409112790135 0.75531195612495 0.75216797739608 0.72389527253433 0.70716780281183 0.677562097559 0.74356274439822 0.78625141645045 0.74635357439363 0.72117916030865 0.75438355288189 0.75174914269882 0.64740755169707 0.71828775920588 0.74015065029731 0.73999814146036 1.3858811501666 0.68080965546631 0.71471458258896 1.0242287504033 0.72345910558919 0.65255754606853 0.7115141525501 0.61284415740911 0.74164090188166 0.76212168500253 0.71035737300034 0.66767746886758 0.70744119309742 1.4177128568207 0.67450294358812 0.70220620946743 0.65865238959955 1.2709452367646 0.76462645897966 0.70575536016952 0.77257292978818 0.74619027955357 0.69553976545447 0.66444617801885 1.1207324807303 0.6407310203494 0.66932594696396 0.63805897855979 0.67589975977752 0.67618983490287 0.68833163816952 0.63894183888646 0.68062293408061 0.63633247764708 0.63884740600705 0.7851038073128 0.67358854981868 0.6747797300497 0.83272165715724 0.64982198586855 0.70488651006777 0.99354741061822 0.75320853930498 0.81175599212917 0.58138759064324 0.62971662686944 0.55331281505355 0.65688401737336 0.65374015773447 0.63361695197302 0.66973610310634 0.552458984946 0.62042526458742 0.61063257149087 0.62130239604912 0.97720370603132 1.0875084959237 0.5493125386893 1.1911495190481 0.61330292837373 0.48405383381966 0.54040994394719 0.98120868608244 0.56449270987842 0.74748717815477 1.0792803169851 1.4871068509923 0.65860517303421 0.60594192370753 0.61502387714549 0.65213984649034 1.5310123527931 0.52047243862327 1.5245254854908 1.1143508792569 1.7076907218224 1.3984701495179 0.86082165672555 0.99571839100812 1.4951721720962 1.378548817968 1.3924167025921 1.2290035454128 0.84534575273789 1.1792756114046 1.0767376108484 1.2258251296401 0.50319088179315 1.2148247388956 1.0798942884562 1.1351569722841 0.83040055969665 0.96502189644848 0.72987617634489 0.82637044757903 0.98143249265692 1.1201260476616 0.95426562136836 0.40400795481886 1.4904295274418 1.2394979329539 1.1518628003517 0.81599895785729 1.311183396461 0.18269560113697 1.022324618002 1.4020892676981 1.2587606765237 0.99242217981848 1.1999430302742 0.7669378379552 1.3663768570598 0.59643658708101 0.98930803781315 0.72022634054385 0.60514008844637 1.4805168512203 0.95019116337495 1.723602196424 1.5499717808317 1.4724684861127 1.1167991684979 1.3289399055505 1.3389725992866 1.1156033487646 1.2301274322617 1.1911658146398 0.90102761430263 1.5712330381795 0.78015547134657 1.417554657654 1.2716799464735 1.3875210931169 1.3934298872281 1.3574201290668 1.2955087485321 1.0694811406355 1.1659650018906 1.3736162398312 1.3149015452384 1.2610879930094 1.2899187733705 1.1513479262604 1.3160596380215 0.8965631635971 1.1724151091781 1.2541071853147 1.1272767671706 1.332295588433 1.1349846023847 1.0415872593135 1.1732627089316 0.89284786241214 1.1281103635028 1.0511748238143 1.0386497903993 1.3449408264354 1.2903961909783 1.3871580869888 1.40798388306 1.1140620783535 1.2647045655604 1.377480480751 1.7922995032754 0.89752244842726 1.3781626476705 0.99146465739673 0.98736344492397 1.2552050486544 1.3525917633747 1.496407848697 1.4122363628507 1.1302625394973 1.1665343434375 0.97665402548334 1.1426233604164 0.96038132953462 1.3816585514601 1.3649724005375 1.4115176061393 0.93819134733517 1.3519429302128 0.94440702511968 0.89588126301837 1.0112390318972 0.84794280369322 0.87594798219054 0.92620541248435 0.9947881382503 1.1378943992396 0.66410682991881 0.84808091308461 0.97046855783156 0.88452749682596 1.0930360760601 1.0480785170538 1.0494388878611 1.0186937638644 1.2443196352236 0.6158793760294 0.84095076520939 1.0008455793817 0.99053944652138 1.0979275759893 0.83656409142719 0.90831192354886 0.51502352371665 0.64014230936822 0.97690942329801 0.68818903542756 0.34982176248992 0.74651296266426 1.3584883100427 0.58873564007809 1.2088169988665 0.5124986951522 0.53879040477349 0.6892809195808 0.59592802964419 1.0499820303041 0.52299782462933 0.59089986414928 0.52203422612652 0.51886915106977 0.61827672467506 0.74293121295832 0.73417963466446 0.78492487198713 0.64581070039792 1.0835364449011 1.3161588532864 1.1591795707685 1.1689637467877 0.83892457773523 0.63396236860591 1.0039534612044 0.96750324591625 0.91919292695321 0.82904589494364 0.28333414311733 1.2994902363839 1.2649695960941 1.1645115215872 0.36478429935493 0.85401600537874 0.56213893917523 0.50894600542135 0.77619075428611 0.78528006397069 1.0456672538427 0.98581641899288 0.54857403022661 1.3886828164898 1.3008517364184 1.3554280133524 1.1008981920335 0.97036093270195 1.4217823477827 1.2364842114436 1.2738375416094 1.2307004266759 1.1015763919714 1.2303565804838 1.0477489762637 1.3464475601769 1.0611474417641 0.87996024935564 1.104053772014 0.96185996518118 1.2562176002539 0.99534483439654 1.3143696625669 0.8195420055654 0.8891719940818 0.95407757221158 0.70638572348599 0.88133683562415 0.95853296985501 0.85