# vtk DataFile Version 3.0
d-2__ created by libgimli-v1.5.0-1-g5991b6ac
ASCII
DATASET UNSTRUCTURED_GRID
POINTS 3065 double
14.646647106361	10.075660810886	0
14.704832811816	9.9744824778853	0
14.741572761215	10.143570688214	0
7.2181179570912	12.323267801616	0
6.9022853070009	12.159878277929	0
7.188568129403	11.864968865302	0
12.573766225573	8.2541691958959	0
12.179090385116	7.8396649872294	0
12.486344232856	7.7791041952802	0
10.909490913954	12.100065284392	0
11.157527929117	12.134706706046	0
10.807865018668	12.328963878518	0
10.246630703596	12.451261426896	0
10.370786380608	12.571785344107	0
10.283370652996	12.620349637225	0
23.486823884586	4.2589561787297	0
23.872774184789	4.3331786567402	0
23.693453371076	4.6788038393608	0
9.4017034496321	12.989518397958	0
9.459889155087	12.888340064957	0
9.4966291044861	13.057428275285	0
8.6528831969526	9.1661723501876	0
9.0889129509339	9.1546198128334	0
9.0172223973042	9.5848707535605	0
4.95	14.894536113346	0
4.9002967662305	14.698789777549	0
5.05	14.834347813918	0
7.8357302798552	13.980149844525	0
7.7483145522431	14.028714137643	0
7.7115746028439	13.859625927314	0
7.9373561751407	13.751251250399	0
9.2631921819019	12.842543338384	0
9.0547266763919	13.085654315995	0
8.8463136869378	12.696007878209	0
6.9615730037337	14.465792775704	0
6.9945996683525	14.319328169198	0
7.136404458958	14.368664189468	0
21.8222466978	6.2098629456668	0
21.734830970188	6.2584272387846	0
21.698091020789	6.0893390284563	0
9.5840448320983	13.008863982168	0
20.073932145557	7.181148808024	0
19.986516417945	7.2297131011419	0
19.949776468545	7.0606248908135	0
8.1805694002704	13.571297247173	0
8.3602246455282	13.688764085818	0
8.1853931903038	13.785892672053	0
20.765748039212	6.6761602926357	0
20.627236771482	6.5291852330617	0
20.823933744667	6.5749819596349	0
8.5857318789655	13.373982996136	0
8.5275461735105	13.475161329137	0
8.3890349057803	13.328186269563	0
9.2343819216497	13.203121154639	0
9.0595504664254	13.300249740875	0
10.311662072528	12.260060065814	0
10.363276453366	12.455311173661	0
20.948089421678	6.6955058768454	0
21.049715316964	6.4666072827198	0
7.6608988246309	14.077278430761	0
7.653388897389	13.960804260315	0
28.908739718026	5	0
28.508739718026	5	0
28.708739718026	4.8492605261212	0
13.77248983024	10.561303742065	0
13.830675535695	10.460125409064	0
13.867415485094	10.629213619392	0
12.119100932851	11.60049948175	0
12.082360983452	11.431411271421	0
12.206516660463	11.551935188632	0
27.358739718026	4.8945361133462	0
27.309036484257	4.6987897775495	0
27.458739718026	4.8343478139176	0
22.57224829691	5.6036960972777	0
22.798029869207	5.4953214203625	0
22.696403973921	5.7242200144881	0
13.080673936584	11.066292257453	0
12.956518259573	10.945768340243	0
13.18229983187	10.837393663327	0
28.458739718026	4.8343478139176	0
28.408739718026	5	0
12.308142555748	11.323036594506	0
22.547801874951	5.2633883138599	0
13.63397856251	10.414328682491	0
12.024175277997	11.532589604422	0
12.031685205239	11.649063774867	0
15.703145764949	9.6093634639172	0
15.615730037337	9.657927757035	0
15.578990087938	9.4888395467067	0
12.444587677104	9.0315078187863	0
12.75	9.25	0
12.46875	9.40625	0
10.45820210822	12.523221050989	0
14.654157033603	10.192134981332	0
17.902749122926	8.2149218349628	0
18.150786138089	8.249563256617	0
17.801123227641	8.4438204290885	0
11.332359384341	12.03757811981	0
11.244943656729	12.086142412928	0
11.237433729487	11.969668242483	0
17.130607666996	8.4717569577762	0
17.327304640181	8.5175536843494	0
17.269118934726	8.6187320173503	0
12.018062834866	9.3144627641309	0
16.96875	6.90625	0
16.518062834866	6.8144627641309	0
16.944587677104	6.5315078187863	0
12.759821286388	10.899971613669	0
12.551355780878	11.14308259128	0
12.342942791424	10.753436153495	0
16.577303041071	9.1237205327386	0
16.453147364059	9.0031966155281	0
16.678928936356	8.8948219386129	0
21.923872593085	5.9809643515411	0
14.508135838631	9.9286857513121	0
8.7098875559768	13.494506913346	0
8.6224718283646	13.543071206464	0
7.5190940340254	14.02794241049	0
-0.24940646753892	14.834347813918	0
0.05	14.834347813918	0
0	15	0
2.3	15	0
2.2	14.888006064741	0
2.4	14.810067208388	0
11.507190839566	11.940449533575	0
11.36538604896	11.891113513304	0
11.502367049532	11.725854108695	0
0.1	15	0
0.3	14.849260526121	0
0.5	15	0
-0.95957299032574	12.742247653798	0
-0.63660515661073	12.736198774421	0
-0.72105850144488	13.237141247116	0
2.9	15	0
2.7	14.849260526121	0
2.95	14.834347813918	0
1.2	14.888006064741	0
1.3	15	0
1.1	15	0
1.9	15	0
1.95	14.834347813918	0
2	15	0
23.155770102009	4.4707815868157	0
23.398627607885	4.6419549088128	0
22.971047224781	4.718656217856	0
13.779999757482	10.67777791251	0
10.633033563444	12.426092464753	0
10.491228772839	12.376756444483	0
10.628209773411	12.211497039873	0
2.0997032337695	14.698789777549	0
2.05	14.894536113346	0
8.8115134512622	13.265608319221	0
7.6871281808847	13.519318143897	0
3.05	14.894536113346	0
3	15	0
1.05	14.894536113346	0
1	15	0
25.508739718026	5	0
25.458739718026	4.8945361133462	0
25.608739718026	4.888006064741	0
0.95	14.834347813918	0
0.9	15	0
23.708017310135	5.0679061559452	0
23.57570494199	5.2584272387846	0
23.492391392804	5.1534065041647	0
6.5387045333462	14.528279940285	0
6.7500015991102	14.393833151611	0
6.7867415485094	14.562921361939	0
7.4860673694066	14.174407016996	0
7.3112359141823	14.271535603232	0
7.3148706664546	14.058847515876	0
6.0874157276122	14.951435706882	0
6	15	0
5.95	14.834347813918	0
13.954831212706	10.580649326274	0
7.5148776296588	13.813829200741	0
11.889880414633	11.599727754597	0
6.8666473488796	14.397882898376	0
6.8741572761215	14.514357068821	0
1.4	14.810067208388	0
3.95	14.894536113346	0
4.05	14.834347813918	0
4	15	0
3.1	15	0
12.993258208972	11.114856550571	0
12.898332554118	11.046946673243	0
12.90584248136	11.163420843689	0
3.9	15	0
4.1	15	0
2.1	15	0
5.1	15	0
5	15	0
7.1315806689246	14.154068764588	0
5.9	15	0
5.3	14.849260526121	0
4.6070433069999	14.368240644588	0
4.6	14.810067208388	0
5.1938980518111	14.524993056905	0
1.0997032337695	14.698789777549	0
25.708739718026	5	0
4.7	15	0
4.5	15	0
24.408739718026	5	0
24.316180298466	5.0287141376427	0
24.321832839145	4.8833962425865	0
24.708739718026	4.8492605261212	0
24.508739718026	5	0
24.458739718026	4.8343478139176	0
23.483145522431	5.2871413764274	0
11.573663228844	6.6878504141764	0
11.783228215591	6.953244789404	0
11.498511972069	7.1356956560705	0
25.308739718026	5	0
24.908739718026	5	0
25.108739718026	4.8492605261212	0
25.408739718026	5	0
25.358739718026	4.8343478139176	0
15.520804382483	9.5900178797075	0
15.528314309725	9.7064920501529	0
25.921540276389	4.4709363375124	0
26.277022110672	4.3098125374061	0
26.309036484257	4.6987897775495	0
21.069293459246	4.0184782266431	0
21.444587677104	4.0315078187863	0
21.46875	4.40625	0
25.214841666215	4.524993056905	0
25.508442951795	4.6987897775495	0
23.395729794819	5.3357056695452	0
23.358989845419	5.1666174592169	0
29.8125	2.6258505226016	0
30	3	0
29.625	3	0
5.8122409423352	10.291228465074	0
5.9889649985263	10.545789285321	0
5.5715926789368	10.688360310892	0
12.278524372398	8.4033099465931	0
12.266749266227	8.7424709281467	0
11.71080923903	8.5533847165846	0
26.458739718026	4.8343478139176	0
26.358739718026	4.8945361133462	0
23.147692779655	5.301064247891	0
23.04606688437	5.5299628420167	0
11.120787979718	11.965618495718	0
26.408739718026	5	0
26.508739718026	5	0
26.708739718026	4.8492605261212	0
9.409213376874	13.105992568403	0
30.458635160201	3.8690920654536	0
30.669330384347	4.1196162860905	0
30.364109258215	4.2441307961306	0
28.358739718026	4.8945361133462	0
27.408739718026	5	0
27.508739718026	5	0
25.6875	2.4642195584136	0
25.771866335589	2.1927504712561	0
26.053487503597	2.1539862920131	0
25.384151503975	2.7152844425934	0
25.6875	2.76491822766	0
25.5	3	0
9.2674085862685	13.056656548133	0
27.708739718026	4.8492605261212	0
28.308739718026	5	0
15.382293114753	9.4430428201335	0
29.308739718026	5	0
29.358739718026	4.8343478139176	0
29.408739718026	5	0
1.8061019481889	14.524993056905	0
29.658146185565	4.8343478139176	0
1.7	14.849260526121	0
1.5	15	0
30.090078193556	3.9711909286582	0
15.173827609243	9.6861537977444	0
15.3534828545	9.8036206363886	0
15.178651399276	9.9007492226244	0
18.23069193846	8.0845247930538	0
18.238201865702	8.2009989634992	0
18.11404618869	8.0804750462887	0
4.8	14.888006064741	0
4.9	15	0
16.402471585846	9.2208491189743	0
16.394961658604	9.1043749485289	0
16.489887313458	9.1722848258564	0
6.1791038580454	14.704649136022	0
17.36404458958	8.6866418946778	0
17.451460317192	8.6380776015599	0
3.6	14.810067208388	0
3.7	15	0
3.5	15	0
16.922142161486	8.7148679353872	0
16.4287009421	8.6628888321103	0
17.302858218222	8.1772459009316	0
17.553086212478	8.4091790074343	0
14.056457107991	10.351750732149	0
14.828988488828	10.095006395096	0
5.5	15	0
5.7	14.849260526121	0
21.1875	4.5625	0
20.90625	4.71875	0
20.882087677104	4.3440078187863	0
6.8150329680421	14.202631790528	0
6.4739761191302	14.193291511538	0
15.804771660235	9.3804648697915	0
14.930614384113	9.8661078009702	0
4.3	14.849260526121	0
19.199774869435	7.6667917392027	0
19.112359141823	7.7153560323205	0
19.075619192424	7.5462678219922	0
9.9706052236163	12.250719786823	0
10.035333637832	12.585708215571	0
20.860673694066	6.7440701699633	0
20.773257966454	6.7926344630811	0
9.6856707273838	12.779965388042	0
-0.43250979015094	13.369587523725	0
-0.85662454898514	13.581460773951	0
22.514062591455	5.7048744302785	0
22.375551323725	5.5578993707045	0
20.742913400511	4.047377368749	0
21.292928542093	6.286653279494	0
21.472583787351	6.4041201181382	0
21.297752332127	6.5012487043739	0
24.1875	2.7176993931111	0
23.626112873365	2.548251847651	0
24.1875	2.3788043021908	0
21.958672828761	5.41136391053	0
22.167085818215	5.8010103483154	0
21.673644598829	5.7490312450385	0
20.175558040842	6.9522502138984	0
19.891590763091	7.1618032238144	0
19.899100690332	7.2782773942597	0
19.017433486969	7.647446154993	0
18.878922219239	7.500471095419	0
18.325617593314	8.1524346703813	0
6.2866035579579	13.872661794752	0
6.1724083866651	13.36768415665	0
[...]
CELL_DATA 5846
SCALARS Coverage double 1
LOOKUP_TABLE default
2.3949426554072 0.97487674551965 0.83326871658444 2.2875318919679 2.8695986929733 1.4054152760361 2.4090501718864 0.73230149619344 1.8575349832459 2.8089021932248 2.2483077713904 1.9447566082022 2.3096708162231 2.8320783743956 2.8576405520771 2.851235783267 2.1760050539473 1.8958069520911 1.9611618800905 2.1895322609061 1.9834554497797 2.2549887088361 2.8485661451103 1.9791738236721 2.4305465540448 2.8880048400596 1.6417492384209 2.2292929114308 2.3317438911949 2.6632520108429 2.3178581783713 1.9773930494793 2.0113964675975 2.9145879152874 2.889156649058 1.0876615919434 2.3543278704877 2.9014951949399 2.9449400623133 2.2788481870393 2.9122835015809 1.9720509552305 1.0472371116034 1.0475055150442 2.4176260272405 1.9737661914389 2.3201385925998 2.2424494291336 2.0020749300396 2.8379198112815 2.3721490750313 1.4921222321525 2.0511978083374 2.2391076025221 1.7968591151756 1.774533063496 2.3911272531102 0.22248782971029 2.1701850601272 2.145750712278 2.7202671383706 1.4299966129899 2.9506385582553 2.2371871101073 1.746051698273 2.1393827784626 2.0000210599468 2.2378360562489 2.1196145480176 2.6825066765517 2.2734396184257 2.6530368222885 2.2998785768754 2.2492695956535 2.1474777887036 2.7592130842853 2.5263539865392 2.9209091715326 1.9374358075011 2.4374588823566 2.283671311412 1.9859527189602 2.2703612241521 2.7781863274368 2.4539685942928 2.9354969854322 2.8095466927043 2.7635705235596 2.4271069877752 2.2058881308647 2.7896721596522 2.1588232495474 2.5657862078051 2.203948419996 1.8224396728249 1.9726252098082 1.5872802580664 2.2819947508432 2.8333387169808 2.370149434207 2.2197698070275 2.0377301745132 2.0814710652663 2.8612818128912 2.232634588501 2.8927597300593 0.62568907541962 2.1146459277318 2.7183283973169 2.9219358951306 1.5184598551728 0.94953030273764 1.7081972078153 2.8558954489186 2.7663326497422 0.25612498456022 1.9709270699304 0.64778793712638 2.1785670769401 0.89244678991561 1.7059371427275 2.1930473502659 2.3797903551291 2.178547459363 2.1268557863398 2.8899422103575 0.48889025992692 2.1196316999958 2.6919935615812 0.576991648645 0.71801594959022 2.3737730928345 2.2674659206711 2.0898067121012 2.6900485884554 1.9865755210263 2.8778907692975 2.2334486051488 1.6890344950534 1.5286449874218 2.0891148525721 0.48069610227227 2.9034642498903 2.2257565434261 2.0927660561083 2.4229898064063 2.2880541083701 2.8340754907891 2.9261364168101 2.8904290809176 2.0695739602942 2.7361354219263 2.8868254783823 2.0615322310727 2.0686381156884 2.2007936468724 2.0813045566522 2.4014454252927 2.8135383750343 2.1542047984966 2.3414887741332 2.9153803060536 2.2976867246574 2.1465419775874 1.037782078972 1.8495824668571 2.3854947383969 1.8268477486295 2.3284404396761 2.3438623144292 2.8554626653653 2.1744211323324 2.859725220394 2.0868720055203 2.8620694921563 2.8360470812628 2.2917052692727 0.38857562527456 1.8635013779437 0.89929821129281 2.1302836539126 0.68082007165782 1.7752097415857 2.2768936103937 2.8834072870483 2.0157750678485 1.936917862863 2.9054656189858 2.3853470969134 1.2988951540958 2.3266204749898 2.224637291239 2.891746985418 2.0087179897997 2.3642672647007 2.2863114779055 1.5628166608543 2.8712866881955 2.3296314713316 2.3564130186984 0.40852555186763 2.2226464060041 1.8945568036841 2.4013277738052 2.2149403532896 1.5972284938726 1.4704675100873 2.7111812424825 1.4921698071621 2.7070488666135 2.7292861666871 2.8723145910579 2.3147175126961 1.7552173933778 1.9195781388321 2.9228850095223 2.3936770158919 2.4037148095285 2.0851526875245 2.4210640861023 2.2360828673856 2.3295796843942 2.1486580559056 2.3470057374306 2.1579205656286 2.4267503971899 2.2384431486138 2.412406960682 2.076010459796 1.7991209808384 2.0806358975637 2.2383641668616 2.2685835795124 2.8182712237012 2.8433420359568 2.8542601395807 2.3206530724117 2.1289610297078 1.92392650801 2.1690539400906 1.9816668557055 1.9496197241706 2.0744534336687 2.1746651222667 2.3695825726722 2.3609039608172 2.4154362397002 2.3944365208444 2.2073996749323 2.2984037221624 2.1022128513475 2.319650409716 1.9927189002428 2.2772451855995 1.9244435469108 1.9993138809343 2.0358096105667 2.3265902511276 2.3989312943646 2.2213123689886 1.833073888215 0.72335385744386 1.9065260930512 2.1395069207972 1.7399844112857 1.9268305618241 2.330383924628 1.7518337236499 2.0911876802442 1.8083766438477 2.4374682556868 1.979528701183 2.0854033123262 2.4389461181466 2.4549999467337 1.4586790244801 2.0160654916767 2.3653549856337 1.8808963154281 2.0551384098979 2.3864561597486 1.8237025075965 2.0799688111179 2.4613098176251 1.1042734727639 1.9252679641885 2.4514823082395 1.8410379741728 1.7904752905017 2.1583992962105 0.74217875427125 1.8496303605459 2.1985147246586 0.90010882303753 1.9406556238858 2.2092230055339 2.4311439379798 2.126758147634 1.9695779925768 2.3382826108198 2.0194805105429 2.2486346275041 2.3563508487458 2.3152546166742 0.81727301393501 2.107218794385 2.3556996815068 2.3429886907981 2.3877456494866 1.8946908975611 2.1389050903839 1.9900514824624 2.2135383199753 1.8975445147883 1.625034996433 2.1672675395104 2.2068649528869 1.886818975094 2.1382377640722 2.228482852231 2.0368076739499 2.1511018219425 2.0507553943906 2.0007388032486 2.0148674717241 2.1850956101095 2.1942074971629 2.3130387078936 1.9002736045182 1.5597760904034 2.1991119718088 2.3191465053369 2.1146278341225 2.2429794423633 1.2731683668013 1.553344882819 2.1208484009789 2.2487867320527 2.1954762205336 2.3141205131767 1.8323720942892 0.97332771467444 1.8795359782582 2.3113651555691 2.0403616005666 1.9380849577213 2.0808405497863 2.3988527653319 1.3264571312192 1.9625557114764 2.1771893455792 2.1683361107835 2.2897534089891 2.0641299538742 2.2042922957952 2.0706914915819 2.4187378855617 1.946616079555 2.0255893778598 2.0870128943336 2.0037930425276 2.1790883678089 2.2951282174731 1.8542485253618 2.1631090965326 2.1686273756229 1.4323654565456 2.2196935813753 1.400015763069 2.182776237946 2.2974578503093 2.0886050613501 2.219067490543 2.0361339349793 2.0995300011612 1.8800903833153 2.2712364241176 2.1226620965641 2.2123839625068 2.0456753758802 1.9418237357097 2.0399727317265 1.9763340505901 1.5400489128586 2.3968763269693 1.8634817804704 2.4139848611224 0.93043967759384 2.1273556685145 2.2307053038446 1.8733377542357 2.1894893606062 2.2436811800697 1.9760209365073 1.5417413787335 2.0732205308225 1.8406873386792 2.0735301982703 1.9651773406391 1.9811566114104 2.1739740928395 1.2246300550164 2.1985803703963 1.8062436340433 1.7956380558673 1.1150417914556 1.9620393809226 2.2846355902278 2.1998546442758 2.0308428239712 1.7676318702246 2.1154797981584 1.9356206897896 2.249915338299 1.9214751211241 2.250016863313 1.9417047718717 2.2654847316023 1.8553300463448 2.1703666569965 1.7721781879431 2.1854204043075 1.9386115448253 2.2714350846774 1.935057991068 2.2598934076885 1.5933681856309 1.9519039980183 1.6582924660049 2.0026613920844 1.9136741466486 2.2362092228109 1.8171821612026 2.1316066252114 1.8303839189249 2.158849986462 2.1917746283055 2.2111178388835 1.8783326738567 1.9711453284083 1.9007929042074 2.2703602623268 2.224594517381 1.7655668718799 2.2060443052621 1.6650900670642 2.063814348823 1.7876788928408 1.5442622425563 2.1327833034759 1.7790914866334 2.0583809225523 1.7979204793781 2.1161496049533 2.0206695069554 1.8633624472241 1.8398920154432 2.122337667739 1.9875452688013 2.0087280964306 1.4578886774153 1.7842077190702 1.7682212073621 1.7692789923522 1.771927842913 1.9068386291159 2.2996156138987 2.1345873371113 1.8126664355907 1.7974109420889 2.2289491233731 2.0250409991544 1.8441629125752 1.906402293121 2.3126172288008 2.1623398853967 2.0431485293334 1.0283460966812 1.1618506415947 1.1057688072593 0.99327709538219 2.177361220624 2.0559306513064 1.9008830108244 2.2522321078725 2.1373875319517 1.9823208558633 2.2290130196127 2.0545083208719 2.1589979494159 2.0008948330579 1.9128283996708 1.5374510384204 2.0945694583363 1.9331595999433 2.0064441706295 2.0207934617898 1.9715707381747 1.8008760481574 1.9712201257085 1.8465570359816 1.9050051783658 2.2130094387305 2.1173250807575 2.1468674405442 2.2236045446915 2.1058927791682 2.1512200067167 2.1335669769798 2.0343255281055 2.059734900342 2.1645227826671 1.8753482183295 2.0808994415102 2.2384517958902 2.0854525747917 2.1570735561713 1.8894757526176 1.8365252748018 1.8071222617956 1.9396315727684 1.8769734227929 1.8721032612841 2.2037822324598 2.1185850490802 1.9618893851965 2.2074044373486 2.0863001626136 2.1288217621952 2.114868518861 2.0011910430369 2.0200811386679 2.174723955584 2.1308824189227 1.6089061603763 2.1745385120704 1.9954616182793 2.1010358148179 2.2453239338505 2.0817123561528 2.1581807263934 1.9475700279866 1.8359952176891 1.3998165052237 2.2164864304426 2.0975931006265 2.1436503674736 2.1247026378213 2.0140978137723 2.0477115171454 2.0851437236302 2.053213705479 1.9944659694147 2.0019296333533 1.9623544182491 1.8043134833288 2.1729403118015 2.0184832229238 2.1018488375788 2.2102548823187 2.029238916344 2.1309923432455 2.1950301078126 1.8686865954022 2.1179575032719 1.8354579990849 1.9990023248458 1.7069506382699 1.6095450446497 1.6627890362665 1.3405620551306 1.9010161595265 1.954813880475 1.9078977769777 1.751330492414 1.9904973409032 1.6960721591201 2.0306315922531 1.6723842784015 1.4184910756951 1.5677919152188 1.5854889888719 1.7925338466773 1.3641774553992 1.5976888879559 1.6800898166412 1.587939349317 1.7283893349162 1.4992035543658 1.9521206653819 1.3022381988415 1.7960754139287 1.6409941176149 1.866229389928 1.8549018362196 1.9203820710076 1.7969365038105 1.0059591105126 1.6932795854302 2.0273112028388 1.7165289456701 1.7792300334035 1.6635856602446 1.7295043468016 1.6295017000804 1.9375809967828 1.7262057491618 1.7590076826051 1.2325833011545 1.9538823083037 1.3921648195704 1.574861697888 1.5173105263001 1.8835514281593 1.8924281641292 1.8662754460864 1.7818149792339 1.8328440383895 1.7887392647894 1.635598667338 1.8664569660865 1.7512614903308 1.9404522076556 1.8089747301288 1.8213888207351 1.5887761685143 1.5539534476758 1.7416870143721 0.93274217558897 1.6288262102104 1.6527762908992 1.779877228125 1.0889783879224 1.7566495670095 1.0484294063455 1.959594700457 1.6762080053769 1.4697041011384 1.7121860096495 1.2661239607337 1.3519890259024 0.71916574880302 0.99813709603004 1.3769446979678 1.7439194812571 0.56127834011174 1.6562041263069 1.1586876682336 1.0102684405237 0.46118766201713 1.0644144796573 1.2347837630247 0.72410816454755 0.52098949224033 1.4658478280676 1.4435523463675 1.4186171074107 1.9585679164649 1.7600403372697 1.6919274921352 1.3263496934632 1.3511885906847 1.7682010913367 1.9144275102999 1.2904902122621 1.5236463019615 1.5575152378168 1.7614056401854 1.0871639817674 1.6548141717123 1.7985910578688 0.86396911977363 1.0849520506731 1.3127305844108 1.0267725610904 1.5119322187133 1.7685368615605 0.88509871618152 1.4803995920256 1.6545812860443 1.5873682545728 1.3385365725293 1.8171097116029 1.1806071598518 0.95339925067689 1.9610124351601 1.3696908702022 1.288120715605 1.3512358512647 1.3371269523724 1.6055755735499 1.6546607736775 1.6398826684265 1.4273944744726 1.3477319750948 1.5869538783852 1.4182978094708 1.6086046120974 1.5487345561021 1.5967392713746 1.8202204507555 1.4626104069638 1.4432981157454 1.3051126447972 1.112490572593 1.6374493884277 1.4635171369727 1.5751256892813 1.7183498428503 1.8490273297861 1.445832689772 1.0971730985756 1.3489177596145 1.2870847980095 1.0528144474661 1.3489789401466 0.9901238890902 1.6814824026431 0.97409711691891 1.6348046205465 1.3696344243017 1.9218746954552 1.7178759268515 1.0320407301103 1.8207014643628 1.6585457473374 1.523856460462 0.43364876228446 0.63790123366459 1.3896950152776 0.91483498678197 1.492102009661 1.000108314708 1.4361750872727 1.5638969220557 1.890389515355 0.95083515982471 1.359952548483 1.2317912069824 1.2344642951182 1.5098332457398 1.4770409036643 1.4675018053789 1.3193891432896 1.5509214513981 1.3890440033799 1.2928897554585 1.1839222008939 1.2043266712605 1.3005438748401 1.5264993603542 1.3492613257068 1.1749903019558 1.652729085747 1.5046790300724 1.3477676819414 1.6005353179377 1.41603823935 1.5713210327509 1.289103206805 1.6463891676657 1.3388284724972 1.6539980594243 1.4637956393284 1.5366799343503 1.624702799197 1.2438554616806 1.9632148760577 1.5168478919102 0.9889466182584 1.3213357138046 1.3853572845507 1.7099485586065 1.272873944191 0.95297140681156 1.1869020588995 0.8653490862664 1.8191957762393 1.0950150035996 1.0013310294489 1.4976411173033 1.3588909699031 1.4559514110069 1.825831268408 1.599997720889 1.7075097379578 1.2924235998281 1.9778679467159 1.7990613412963 1.3123774056029 1.419130435538 1.3605918388602 1.0862792960996 1.3171068990632 1.3566237507705 1.5834662396922 1.3535129575563 1.4969908402644 1.3535648781395 1.6691986989266 1.8141568745326 1.3352238469609 1.4029844203445 1.3472265037642 1.3443851337139 1.7213968666244 1.6821395723193 1.2741822803247 1.6346990792935 1.5412193527498 1.232822236564 1.3046440445725 1.1208908502679 1.1639653569098 1.2451592155739 1.3599017715228 1.3232702190268 1.3584006858776 1.3572885488778 1.0306016408075 0.90163750504944 0.97828581042487 0.96729318738767 1.4391596391909 1.0179923387186 1.3354952238139 1.4143797650263 1.1361714849796 1.2689033463471 1.33363013413 1.0989689874963 1.1601007992659 1.1535958772325 1.1525820294837 0.81052827761365 1.0906838048302 1.0276289772343 1.1819605330385 1.1942955981104 1.0743760379189 0.7627783150082 1.0583670116748 1.1873946226492 1.0835981043995 1.0524428596047 0.91960634790381 0.92679244325141 1.0307069413508 0.83530361535354 0.90787756414462 1.3434188819475 1.322161271188 1.0582474970613 1.3490195848404 0.82637724702108 0.99038424068797 1.0424216567015 0.85794994140455 0.90601941311685 0.91236232486254 0.85669698198054 0.78387763778415 1.0450986936299 0.94235898285379 0.99923911121722 1.5198749244488 1.1634872190199 1.6583664441453 0.78686714424903 1.6903692259946 1.3526810686434 1.1465047056493 1.0697776574724 1.6648954231155 1.5370924413273 1.2909454990512 1.5749457282941 0.60501078915291 0.75915395826958 1.3000417663076 1.6579658901373 1.6648396991132 1.388995981408 1.0249463063887 1.2691786425147 1.8101634155511 1.5932728720828 1.6999635160391 1.3137276082382 1.3295845584792 1.3908861669421 1.4631634334362 1.2307753646601 1.0649953512715 0.8694030720573 1.5117715905609 1.8805737002128 1.355684166842 1.3463544355672 1.446212585953 1.1908436107947 0.52109878900866 1.2388678190967 1.2875658451859 1.3760317967232 1.2889022662288 1.0202176829377 1.2923802370986 1.2750458343184 1.2762401778952 1.2620492386818 1.3836061942097 1.2799427303057 1.2839973636961 1.2685939395449 1.274082983122 1.2917796652805 1.2799714022619 0.71813788013653 1.2780679175751 1.3410314326622 1.2828859067264 1.2820793029323 1.2728238359774 0.97573764091928 1.3089775513234 1.3144024465898 1.3021419797115 1.281404601505 1.3175680367703 1.2927252066763 1.3130081099902 1.0094735615871 1.2981255250066 1.2992912045769 1.3058544283342 1.4873789694581 0.84775280512555 0.94905216610809 1.3111179438142 1.5061164618671 0.97666830335652 1.0187757412816 1.010609390085 0.92509135074793 1.299810118016 1.3218505850455 1.3132379330891 1.3268540026249 1.3595705063663 1.5499528684448 1.01542512792 1.4201016287448 1.6626070533277 1.6017670975451 1.5340978195786 0.98384281289446 1.342252797401 1.3261988467494 1.3482722571912 1.3132425467546 0.91714188436151 0.92262260683758 0.93451622049363 0.99205715157406 0.88742463629942 1.0245867529056 0.92699076738356 0.95816308551943 0.87775333332738 0.84937966641797 0.92364626211102 0.94660190847476 0.86201006680624 0.85356618211088 0.90497145945781 0.97599999705648 0.87781072627237 0.88527977944778 0.82112679713909 0.76424312120862 0.86575674250088 0.88101568892248 0.79068422921433 0.7961291950466 0.86546592259694 0.94302672312719 0.89257011657396 0.8615522195256 0.93112617401861 0.84652394817551 0.8573136690098 1.0554704408219 0.8598644676458 0.79988445216636 0.83206274003892 0.95822607910011 0.75706864449709 0.83813274237357 0.80512540741506 0.79527405096381 1.0504070123773 1.359620290165 0.89754264389239 0.79176041098035 0.7167072671627 0.76517704108584 0.83366408784039 0.79523589099635 0.77556736814148 0.78417437679262 0.73619113908564 1.0110971006456 0.71807917571268 0.6674724417756 0.80064203444 0.75318459741794 0.89209715679981 1.0388586965522 0.93654601362102 0.90601223716651 0.8094683971235 0.76574404501257 0.75398639989011 0.77587505677323 0.70931113401581 0.74840715680223 0.75381727849742 0.70684336646621 0.83339263734506 0.7592756602289 0.67736617997763 0.63035709220522 0.93615270833695 0.79581236264083 0.66397727715474 0.73711992802527 0.99401103210502 0.99707885204295 0.98917075547639 0.86066111902912 0.69291081346678 0.7484522890363 0.98560190068399 0.8706179617407 1.0214898968206 1.0409126325856 0.8725257966093 0.78718505108526 0.9661104933122 0.94820470999904 0.93747825415686 0.85187644852748 1.2676553201888 1.4256854575172 0.65959910478652 0.98681471604566 0.64182119593257 1.0859296337881 1.0582585815763 0.66891514517353 1.039827031574 0.80898815693358 1.0100023885885 0.89660112223429 0.97997603324762 0.81139008139693 1.1137329959543 0.96457061824425 0.94748239881586 0.87917205232581 0.95057532619225 0.70260699194072 1.0646142993809 1.0604797121294 0.58196475784714 0.75036595729075 0.93079943795035 0.9138896381127 1.2600475555115 1.0886230087906 1.0831450637865 0.9825770561125 0.76187225307156 0.70579810808159 1.0002080960944 0.68755985093411 0.6827890733405 0.76254285538851 1.059397304431 1.0321084000328 1.1521890478497 1.1538893371844 1.1617668473426 0.84065191441599 1.1723760771923 0.99309935331034 1.0901731741691 0.64141219181322 0.66670035528246 0.73575547081544 0.72764891786071 0.611991033829 0.9800516562858 0.75063427567553 0.73298528415945 0.5990053161297 0.56440230340969 0.60907053659511 0.57104722521423 0.71942192892991 0.60260526219067 0.60496585233434 0.51090516763846 0.64324784107943 0.57495612005731 0.62878304787177 0.48872314899303 0.65005838783901 0.57400894111841 0.61874546561678 0.63406823203465 0.55256617313383 0.42958608397142 0.5890116311872 0.51474460146419 0.68022529085758 0.51614963240895 0.43347822181263 0.58866352822709 0.71197797074288 0.49891742314889 0.54984063654656 0.65966977418253 0.70815879009541 0.45749100874547 0.35590733949632 0.55715391519798 0.69169243261765 0.61091735387886 1.2753370179177 0.74351193766316 0.7816007905022 0.53918005036079 0.40176603751547 0.52148105615573 0.50247591059817 1.329135822179 0.53432495183654 0.51312012728244 0.30279171403978 0.47864479813854 0.50047503914162 0.63598636661242 0.44847937038286 0.42536553649903 0.55800742761122 0.37647076572542 0.64134307572264 0.58291004145515 0.68556062382933 0.5297707723411 0.66054863541174 0.40615321667326 0.3498008878483 0.41478441385801 0.58015807938694 0.4839868016864 0.44979514079687 -0.10184493884554 0.41992156926526 0.3493437408315 0.29687712059086 -0.062327433951701 0.1964008979272 1.0501646075398 0.85199832695349 0.65328453583651 0.88471684009873 0.60153042685774 0.73723360583489 0.65021677690972 0.82213087350462 1.1899068811078 1.2527573355173 1.6733898326027 1.3574745167511 1.3620635548987 1.0086921947343 1.3549225061014 1.3303998392839 1.3419294073611 1.066322988312 0.95645545429002 0.98261869196218 0.96179406125957 1.0402094009479 1.4404283141091 1.3275885693268 1.3240703913636 1.3159604532916 1.0435715145246 0.86468622989736 0.95095260627007 0.99342225448829 0.90529280411816 0.91294176277793 0.79837396688561 0.79730241168441 0.89138504286093 0.97621731540894 0.83494325175713 0.92122372971185 0.91840054669707 0.88735736691368 0.80201645066593 0.83649708478322 0.85207777605299 0.77469821512297 0.83751234211784 0.81772443637503 0.74075009717802 0.73431054802879 0.87573382499054 0.81047569133458 0.69174607144824 0.748876828615 0.74919490815992 0.78412065688329 0.71157694653365 0.62258740806014 0.71216533891877 0.70684106263045 0.75868757399869 0.62504939760716 0.691