TITLE = "HYDROGEOCHEM DENSITY/PRESSURE PLOT"
VARIABLES = "X","Y","Rho_w","H_p","H_ttl"
ZONE T="       0", N=       82, E=       40, F=FEPOINT, ET=QUADRILATERAL, SOLUTIONTIME=  0.0000000E+00
  0.0000000E+00  0.0000000E+00  1.0000000E+00  0.0000000E+00  0.0000000E+00
  5.0000000E+01  0.0000000E+00  1.0000000E+00  0.0000000E+00  0.0000000E+00
  0.0000000E+00  5.0000000E+00  1.0000000E+00 -9.7000000E+01 -9.2000000E+01
  5.0000000E+01  5.0000000E+00  1.0000000E+00 -9.7000000E+01 -9.2000000E+01
  0.0000000E+00  1.0000000E+01  1.0000000E+00 -9.7000000E+01 -8.7000000E+01
  5.0000000E+01  1.0000000E+01  1.0000000E+00 -9.7000000E+01 -8.7000000E+01
  0.0000000E+00  1.5000000E+01  1.0000000E+00 -9.7000000E+01 -8.2000000E+01
  5.0000000E+01  1.5000000E+01  1.0000000E+00 -9.7000000E+01 -8.2000000E+01
  0.0000000E+00  2.0000000E+01  1.0000000E+00 -9.7000000E+01 -7.7000000E+01
  5.0000000E+01  2.0000000E+01  1.0000000E+00 -9.7000000E+01 -7.7000000E+01
  0.0000000E+00  2.5000000E+01  1.0000000E+00 -9.7000000E+01 -7.2000000E+01
  5.0000000E+01  2.5000000E+01  1.0000000E+00 -9.7000000E+01 -7.2000000E+01
  0.0000000E+00  3.0000000E+01  1.0000000E+00 -9.7000000E+01 -6.7000000E+01
  5.0000000E+01  3.0000000E+01  1.0000000E+00 -9.7000000E+01 -6.7000000E+01
  0.0000000E+00  3.5000000E+01  1.0000000E+00 -9.7000000E+01 -6.2000000E+01
  5.0000000E+01  3.5000000E+01  1.0000000E+00 -9.7000000E+01 -6.2000000E+01
  0.0000000E+00  4.0000000E+01  1.0000000E+00 -9.7000000E+01 -5.7000000E+01
  5.0000000E+01  4.0000000E+01  1.0000000E+00 -9.7000000E+01 -5.7000000E+01
  0.0000000E+00  4.5000000E+01  1.0000000E+00 -9.7000000E+01 -5.2000000E+01
  5.0000000E+01  4.5000000E+01  1.0000000E+00 -9.7000000E+01 -5.2000000E+01
  0.0000000E+00  5.0000000E+01  1.0000000E+00 -9.7000000E+01 -4.7000000E+01
  5.0000000E+01  5.0000000E+01  1.0000000E+00 -9.7000000E+01 -4.7000000E+01
  0.0000000E+00  5.5000000E+01  1.0000000E+00 -9.7000000E+01 -4.2000000E+01
  5.0000000E+01  5.5000000E+01  1.0000000E+00 -9.7000000E+01 -4.2000000E+01
  0.0000000E+00  6.0000000E+01  1.0000000E+00 -9.7000000E+01 -3.7000000E+01
  5.0000000E+01  6.0000000E+01  1.0000000E+00 -9.7000000E+01 -3.7000000E+01
  0.0000000E+00  6.5000000E+01  1.0000000E+00 -9.7000000E+01 -3.2000000E+01
  5.0000000E+01  6.5000000E+01  1.0000000E+00 -9.7000000E+01 -3.2000000E+01
  0.0000000E+00  7.0000000E+01  1.0000000E+00 -9.7000000E+01 -2.7000000E+01
  5.0000000E+01  7.0000000E+01  1.0000000E+00 -9.7000000E+01 -2.7000000E+01
  0.0000000E+00  7.5000000E+01  1.0000000E+00 -9.7000000E+01 -2.2000000E+01
  5.0000000E+01  7.5000000E+01  1.0000000E+00 -9.7000000E+01 -2.2000000E+01
  0.0000000E+00  8.0000000E+01  1.0000000E+00 -9.7000000E+01 -1.7000000E+01
  5.0000000E+01  8.0000000E+01  1.0000000E+00 -9.7000000E+01 -1.7000000E+01
  0.0000000E+00  8.5000000E+01  1.0000000E+00 -9.7000000E+01 -1.2000000E+01
  5.0000000E+01  8.5000000E+01  1.0000000E+00 -9.7000000E+01 -1.2000000E+01
  0.0000000E+00  9.0000000E+01  1.0000000E+00 -9.7000000E+01 -7.0000000E+00
  5.0000000E+01  9.0000000E+01  1.0000000E+00 -9.7000000E+01 -7.0000000E+00
  0.0000000E+00  9.5000000E+01  1.0000000E+00 -9.7000000E+01 -2.0000000E+00
  5.0000000E+01  9.5000000E+01  1.0000000E+00 -9.7000000E+01 -2.0000000E+00
  0.0000000E+00  1.0000000E+02  1.0000000E+00 -9.7000000E+01  3.0000000E+00
  5.0000000E+01  1.0000000E+02  1.0000000E+00 -9.7000000E+01  3.0000000E+00
  0.0000000E+00  1.0500000E+02  1.0000000E+00 -9.7000000E+01  8.0000000E+00
  5.0000000E+01  1.0500000E+02  1.0000000E+00 -9.7000000E+01  8.0000000E+00
  0.0000000E+00  1.1000000E+02  1.0000000E+00 -9.7000000E+01  1.3000000E+01
  5.0000000E+01  1.1000000E+02  1.0000000E+00 -9.7000000E+01  1.3000000E+01
  0.0000000E+00  1.1500000E+02  1.0000000E+00 -9.7000000E+01  1.8000000E+01
  5.0000000E+01  1.1500000E+02  1.0000000E+00 -9.7000000E+01  1.8000000E+01
  0.0000000E+00  1.2000000E+02  1.0000000E+00 -9.7000000E+01  2.3000000E+01
  5.0000000E+01  1.2000000E+02  1.0000000E+00 -9.7000000E+01  2.3000000E+01
  0.0000000E+00  1.2500000E+02  1.0000000E+00 -9.7000000E+01  2.8000000E+01
  5.0000000E+01  1.2500000E+02  1.0000000E+00 -9.7000000E+01  2.8000000E+01
  0.0000000E+00  1.3000000E+02  1.0000000E+00 -9.7000000E+01  3.3000000E+01
  5.0000000E+01  1.3000000E+02  1.0000000E+00 -9.7000000E+01  3.3000000E+01
  0.0000000E+00  1.3500000E+02  1.0000000E+00 -9.7000000E+01  3.8000000E+01
  5.0000000E+01  1.3500000E+02  1.0000000E+00 -9.7000000E+01  3.8000000E+01
  0.0000000E+00  1.4000000E+02  1.0000000E+00 -9.7000000E+01  4.3000000E+01
  5.0000000E+01  1.4000000E+02  1.0000000E+00 -9.7000000E+01  4.3000000E+01
  0.0000000E+00  1.4500000E+02  1.0000000E+00 -9.7000000E+01  4.8000000E+01
  5.0000000E+01  1.4500000E+02  1.0000000E+00 -9.7000000E+01  4.8000000E+01
  0.0000000E+00  1.5000000E+02  1.0000000E+00 -9.7000000E+01  5.3000000E+01
  5.0000000E+01  1.5000000E+02  1.0000000E+00 -9.7000000E+01  5.3000000E+01
  0.0000000E+00  1.5500000E+02  1.0000000E+00 -9.7000000E+01  5.8000000E+01
  5.0000000E+01  1.5500000E+02  1.0000000E+00 -9.7000000E+01  5.8000000E+01
  0.0000000E+00  1.6000000E+02  1.0000000E+00 -9.7000000E+01  6.3000000E+01
  5.0000000E+01  1.6000000E+02  1.0000000E+00 -9.7000000E+01  6.3000000E+01
  0.0000000E+00  1.6500000E+02  1.0000000E+00 -9.7000000E+01  6.8000000E+01
  5.0000000E+01  1.6500000E+02  1.0000000E+00 -9.7000000E+01  6.8000000E+01
  0.0000000E+00  1.7000000E+02  1.0000000E+00 -9.7000000E+01  7.3000000E+01
  5.0000000E+01  1.7000000E+02  1.0000000E+00 -9.7000000E+01  7.3000000E+01
  0.0000000E+00  1.7500000E+02  1.0000000E+00 -9.7000000E+01  7.8000000E+01
  5.0000000E+01  1.7500000E+02  1.0000000E+00 -9.7000000E+01  7.8000000E+01
  0.0000000E+00  1.8000000E+02  1.0000000E+00 -9.7000000E+01  8.3000000E+01
  5.0000000E+01  1.8000000E+02  1.0000000E+00 -9.7000000E+01  8.3000000E+01
  0.0000000E+00  1.8500000E+02  1.0000000E+00 -9.7000000E+01  8.8000000E+01
  5.0000000E+01  1.8500000E+02  1.0000000E+00 -9.7000000E+01  8.8000000E+01
  0.0000000E+00  1.9000000E+02  1.0000000E+00 -9.7000000E+01  9.3000000E+01
  5.0000000E+01  1.9000000E+02  1.0000000E+00 -9.7000000E+01  9.3000000E+01
  0.0000000E+00  1.9500000E+02  1.0000000E+00 -9.7000000E+01  9.8000000E+01
  5.0000000E+01  1.9500000E+02  1.0000000E+00 -9.7000000E+01  9.8000000E+01
  0.0000000E+00  2.0000000E+02  1.0000000E+00 -9.0000000E+01  1.1000000E+02
  5.0000000E+01  2.0000000E+02  1.0000000E+00 -9.0000000E+01  1.1000000E+02
      1      2      4      3
      3      4      6      5
      5      6      8      7
      7      8     10      9
      9     10     12     11
     11     12     14     13
     13     14     16     15
     15     16     18     17
     17     18     20     19
     19     20     22     21
     21     22     24     23
     23     24     26     25
     25     26     28     27
     27     28     30     29
     29     30     32     31
     31     32     34     33
     33     34     36     35
     35     36     38     37
     37     38     40     39
     39     40     42     41
     41     42     44     43
     43     44     46     45
     45     46     48     47
     47     48     50     49
     49     50     52     51
     51     52     54     53
     53     54     56     55
     55     56     58     57
     57     58     60     59
     59     60     62     61
     61     62     64     63
     63     64     66     65
     65     66     68     67
     67     68     70     69
     69     70     72     71
     71     72     74     73
     73     74     76     75
     75     76     78     77
     77     78     80     79
     79     80     82     81
ZONE T="       1", N=       82, E=       40, F=FEPOINT, ET=QUADRILATERAL, SOLUTIONTIME=  5.0000000E-02
  0.0000000E+00  0.0000000E+00  1.0000000E+00  0.0000000E+00  0.0000000E+00
  5.0000000E+01  0.0000000E+00  1.0000000E+00  0.0000000E+00  0.0000000E+00
  0.0000000E+00  5.0000000E+00  1.0000000E+00 -2.8295152E+01 -2.3295152E+01
  5.0000000E+01  5.0000000E+00  1.0000000E+00 -2.8295152E+01 -2.3295152E+01
  0.0000000E+00  1.0000000E+01  1.0000000E+00 -5.3717195E+01 -4.3717195E+01
  5.0000000E+01  1.0000000E+01  1.0000000E+00 -5.3717195E+01 -4.3717195E+01
  0.0000000E+00  1.5000000E+01  1.0000000E+00 -7.3634245E+01 -5.8634245E+01
  5.0000000E+01  1.5000000E+01  1.0000000E+00 -7.3634245E+01 -5.8634245E+01
  0.0000000E+00  2.0000000E+01  1.0000000E+00 -8.7822639E+01 -6.7822639E+01
  5.0000000E+01  2.0000000E+01  1.0000000E+00 -8.7822639E+01 -6.7822639E+01
  0.0000000E+00  2.5000000E+01  1.0000000E+00 -9.5653808E+01 -7.0653808E+01
  5.0000000E+01  2.5000000E+01  1.0000000E+00 -9.5653808E+01 -7.0653808E+01
  0.0000000E+00  3.0000000E+01  1.0000000E+00 -9.7107820E+01 -6.7107820E+01
  5.0000000E+01  3.0000000E+01  1.0000000E+00 -9.7107820E+01 -6.7107820E+01
  0.0000000E+00  3.5000000E+01  1.0000000E+00 -9.6987063E+01 -6.1987063E+01
  5.0000000E+01  3.5000000E+01  1.0000000E+00 -9.6987063E+01 -6.1987063E+01
  0.0000000E+00  4.0000000E+01  1.0000000E+00 -9.7001434E+01 -5.7001434E+01
  5.0000000E+01  4.0000000E+01  1.0000000E+00 -9.7001434E+01 -5.7001434E+01
  0.0000000E+00  4.5000000E+01  1.0000000E+00 -9.6999846E+01 -5.1999846E+01
  5.0000000E+01  4.5000000E+01  1.0000000E+00 -9.6999846E+01 -5.1999846E+01
  0.0000000E+00  5.0000000E+01  1.0000000E+00 -9.7000017E+01 -4.7000017E+01
  5.0000000E+01  5.0000000E+01  1.0000000E+00 -9.7000017E+01 -4.7000017E+01
  0.0000000E+00  5.5000000E+01  1.0000000E+00 -9.6999998E+01 -4.1999998E+01
  5.0000000E+01  5.5000000E+01  1.0000000E+00 -9.6999998E+01 -4.1999998E+01
  0.0000000E+00  6.0000000E+01  1.0000000E+00 -9.7000000E+01 -3.7000000E+01
  5.0000000E+01  6.0000000E+01  1.0000000E+00 -9.7000000E+01 -3.7000000E+01
  0.0000000E+00  6.5000000E+01  1.0000000E+00 -9.7000000E+01 -3.2000000E+01
  5.0000000E+01  6.5000000E+01  1.0000000E+00 -9.7000000E+01 -3.2000000E+01
  0.0000000E+00  7.0000000E+01  1.0000000E+00 -9.7000000E+01 -2.7000000E+01
  5.0000000E+01  7.0000000E+01  1.0000000E+00 -9.7000000E+01 -2.7000000E+01
  0.0000000E+00  7.5000000E+01  1.0000000E+00 -9.7000000E+01 -2.2000000E+01
  5.0000000E+01  7.5000000E+01  1.0000000E+00 -9.7000000E+01 -2.2000000E+01
  0.0000000E+00  8.0000000E+01  1.0000000E+00 -9.7000000E+01 -1.7000000E+01
  5.0000000E+01  8.0000000E+01  1.0000000E+00 -9.7000000E+01 -1.7000000E+01
  0.0000000E+00  8.5000000E+01  1.0000000E+00 -9.7000000E+01 -1.2000000E+01
  5.0000000E+01  8.5000000E+01  1.0000000E+00 -9.7000000E+01 -1.2000000E+01
  0.0000000E+00  9.0000000E+01  1.0000000E+00 -9.7000000E+01 -7.0000000E+00
  5.0000000E+01  9.0000000E+01  1.0000000E+00 -9.7000000E+01 -7.0000000E+00
  0.0000000E+00  9.5000000E+01  1.0000000E+00 -9.7000000E+01 -2.0000000E+00
  5.0000000E+01  9.5000000E+01  1.0000000E+00 -9.7000000E+01 -2.0000000E+00
  0.0000000E+00  1.0000000E+02  1.0000000E+00 -9.7000000E+01  3.0000000E+00
  5.0000000E+01  1.0000000E+02  1.0000000E+00 -9.7000000E+01  3.0000000E+00
  0.0000000E+00  1.0500000E+02  1.0000000E+00 -9.7000000E+01  8.0000000E+00
  5.0000000E+01  1.0500000E+02  1.0000000E+00 -9.7000000E+01  8.0000000E+00
  0.0000000E+00  1.1000000E+02  1.0000000E+00 -9.7000000E+01  1.3000000E+01
  5.0000000E+01  1.1000000E+02  1.0000000E+00 -9.7000000E+01  1.3000000E+01
  0.0000000E+00  1.1500000E+02  1.0000000E+00 -9.7000000E+01  1.8000000E+01
  5.0000000E+01  1.1500000E+02  1.0000000E+00 -9.7000000E+01  1.8000000E+01
  0.0000000E+00  1.2000000E+02  1.0000000E+00 -9.7000000E+01  2.3000000E+01
  5.0000000E+01  1.2000000E+02  1.0000000E+00 -9.7000000E+01  2.3000000E+01
  0.0000000E+00  1.2500000E+02  1.0000000E+00 -9.6999999E+01  2.8000001E+01
  5.0000000E+01  1.2500000E+02  1.0000000E+00 -9.6999999E+01  2.8000001E+01
  0.0000000E+00  1.3000000E+02  1.0000000E+00 -9.6999997E+01  3.3000003E+01
  5.0000000E+01  1.3000000E+02  1.0000000E+00 -9.6999997E+01  3.3000003E+01
  0.0000000E+00  1.3500000E+02  1.0000000E+00 -9.6999988E+01  3.8000012E+01
  5.0000000E+01  1.3500000E+02  1.0000000E+00 -9.6999988E+01  3.8000012E+01
  0.0000000E+00  1.4000000E+02  1.0000000E+00 -9.6999956E+01  4.3000044E+01
  5.0000000E+01  1.4000000E+02  1.0000000E+00 -9.6999956E+01  4.3000044E+01
  0.0000000E+00  1.4500000E+02  1.0000000E+00 -9.6999854E+01  4.8000146E+01
  5.0000000E+01  1.4500000E+02  1.0000000E+00 -9.6999854E+01  4.8000146E+01
  0.0000000E+00  1.5000000E+02  1.0000000E+00 -9.6999577E+01  5.3000423E+01
  5.0000000E+01  1.5000000E+02  1.0000000E+00 -9.6999577E+01  5.3000423E+01
  0.0000000E+00  1.5500000E+02  1.0000000E+00 -9.6998933E+01  5.8001067E+01
  5.0000000E+01  1.5500000E+02  1.0000000E+00 -9.6998933E+01  5.8001067E+01
  0.0000000E+00  1.6000000E+02  1.0000000E+00 -9.6997634E+01  6.3002366E+01
  5.0000000E+01  1.6000000E+02  1.0000000E+00 -9.6997634E+01  6.3002366E+01
  0.0000000E+00  1.6500000E+02  1.0000000E+00 -9.6995073E+01  6.8004927E+01
  5.0000000E+01  1.6500000E+02  1.0000000E+00 -9.6995073E+01  6.8004927E+01
  0.0000000E+00  1.7000000E+02  1.0000000E+00 -9.6988666E+01  7.3011334E+01
  5.0000000E+01  1.7000000E+02  1.0000000E+00 -9.6988666E+01  7.3011334E+01
  0.0000000E+00  1.7500000E+02  1.0000000E+00 -9.6964450E+01  7.8035550E+01
  5.0000000E+01  1.7500000E+02  1.0000000E+00 -9.6964450E+01  7.8035550E+01
  0.0000000E+00  1.8000000E+02  1.0000000E+00 -9.6847668E+01  8.3152332E+01
  5.0000000E+01  1.8000000E+02  1.0000000E+00 -9.6847668E+01  8.3152332E+01
  0.0000000E+00  1.8500000E+02  1.0000000E+00 -9.6288967E+01  8.8711033E+01
  5.0000000E+01  1.8500000E+02  1.0000000E+00 -9.6288967E+01  8.8711033E+01
  0.0000000E+00  1.9000000E+02  1.0000000E+00 -9.4239201E+01  9.5760799E+01
  5.0000000E+01  1.9000000E+02  1.0000000E+00 -9.4239201E+01  9.5760799E+01
  0.0000000E+00  1.9500000E+02  1.0000000E+00 -8.9269830E+01  1.0573017E+02
  5.0000000E+01  1.9500000E+02  1.0000000E+00 -8.9269830E+01  1.0573017E+02
  0.0000000E+00  2.0000000E+02  1.0000000E+00 -8.1436324E+01  1.1856368E+02
  5.0000000E+01  2.0000000E+02  1.0000000E+00 -8.1436324E+01  1.1856368E+02
      1      2      4      3
      3      4      6      5
      5      6      8      7
      7      8     10      9
      9     10     12     11
     11     12     14     13
     13     14     16     15
     15     16     18     17
     17     18     20     19
     19     20     22     21
     21     22     24     23
     23     24     26     25
     25     26     28     27
     27     28     30     29
     29     30     32     31
     31     32     34     33
     33     34     36     35
     35     36     38     37
     37     38     40     39
     39     40     42     41
     41     42     44     43
     43     44     46     45
     45     46     48     47
     47     48     50     49
     49     50     52     51
     51     52     54     53
     53     54     56     55
     55     56     58     57
     57     58     60     59
     59     60     62     61
     61     62     64     63
     63     64     66     65
     65     66     68     67
     67     68     70     69
     69     70     72     71
     71     72     74     73
     73     74     76     75
     75     76     78     77
     77     78     80     79
     79     80     82     81
ZONE T="       2", N=       82, E=       40, F=FEPOINT, ET=QUADRILATERAL, SOLUTIONTIME=  1.1000000E-01
  0.0000000E+00  0.0000000E+00  1.0000000E+00  0.0000000E+00  0.0000000E+00
  5.0000000E+01  0.0000000E+00  1.0000000E+00  0.0000000E+00  0.0000000E+00
  0.0000000E+00  5.0000000E+00  1.0000000E+00 -1.6785448E+01 -1.1785448E+01
  5.0000000E+01  5.0000000E+00  1.0000000E+00 -1.6785448E+01 -1.1785448E+01
  0.0000000E+00  1.0000000E+01  1.0000000E+00 -3.4473809E+01 -2.4473809E+01
  5.0000000E+01  1.0000000E+01  1.0000000E+00 -3.4473809E+01 -2.4473809E+01
  0.0000000E+00  1.5000000E+01  1.0000000E+00 -5.2066483E+01 -3.7066483E+01
  5.0000000E+01  1.5000000E+01  1.0000000E+00 -5.2066483E+01 -3.7066483E+01
  0.0000000E+00  2.0000000E+01  1.0000000E+00 -6.8507415E+01 -4.8507415E+01
  5.0000000E+01  2.0000000E+01  1.0000000E+00 -6.8507415E+01 -4.8507415E+01
  0.0000000E+00  2.5000000E+01  1.0000000E+00 -8.2546344E+01 -5.7546344E+01
  5.0000000E+01  2.5000000E+01  1.0000000E+00 -8.2546344E+01 -5.7546344E+01
  0.0000000E+00  3.0000000E+01  1.0000000E+00 -9.2535103E+01 -6.2535103E+01
  5.0000000E+01  3.0000000E+01  1.0000000E+00 -9.2535103E+01 -6.2535103E+01
  0.0000000E+00  3.5000000E+01  1.0000000E+00 -9.6811599E+01 -6.1811599E+01
  5.0000000E+01  3.5000000E+01  1.0000000E+00 -9.6811599E+01 -6.1811599E+01
  0.0000000E+00  4.0000000E+01  1.0000000E+00 -9.7017524E+01 -5.7017524E+01
  5.0000000E+01  4.0000000E+01  1.0000000E+00 -9.7017524E+01 -5.7017524E+01
  0.0000000E+00  4.5000000E+01  1.0000000E+00 -9.6998438E+01 -5.1998438E+01
  5.0000000E+01  4.5000000E+01  1.0000000E+00 -9.6998438E+01 -5.1998438E+01
  0.0000000E+00  5.0000000E+01  1.0000000E+00 -9.7000101E+01 -4.7000101E+01
  5.0000000E+01  5.0000000E+01  1.0000000E+00 -9.7000101E+01 -4.7000101E+01
  0.0000000E+00  5.5000000E+01  1.0000000E+00 -9.6999999E+01 -4.1999999E+01
  5.0000000E+01  5.5000000E+01  1.0000000E+00 -9.6999999E+01 -4.1999999E+01
  0.0000000E+00  6.0000000E+01  1.0000000E+00 -9.6999999E+01 -3.6999999E+01
  5.0000000E+01  6.0000000E+01  1.0000000E+00 -9.6999999E+01 -3.6999999E+01
  0.0000000E+00  6.5000000E+01  1.0000000E+00 -9.7000000E+01 -3.2000000E+01
  5.0000000E+01  6.5000000E+01  1.0000000E+00 -9.7000000E+01 -3.2000000E+01
  0.0000000E+00  7.0000000E+01  1.0000000E+00 -9.7000000E+01 -2.7000000E+01
  5.0000000E+01  7.0000000E+01  1.0000000E+00 -9.7000000E+01 -2.7000000E+01
  0.0000000E+00  7.5000000E+01  1.0000000E+00 -9.7000000E+01 -2.2000000E+01
  5.0000000E+01  7.5000000E+01  1.0000000E+00 -9.7000000E+01 -2.2000000E+01
  0.0000000E+00  8.0000000E+01  1.0000000E+00 -9.7000000E+01 -1.7000000E+01
  5.0000000E+01  8.0000000E+01  1.0000000E+00 -9.7000000E+01 -1.7000000E+01
  0.0000000E+00  8.5000000E+01  1.0000000E+00 -9.7000000E+01 -1.2000000E+01
  5.0000000E+01  8.5000000E+01  1.0000000E+00 -9.7000000E+01 -1.2000000E+01
  0.0000000E+00  9.0000000E+01  1.0000000E+00 -9.7000000E+01 -7.0000000E+00
  5.0000000E+01  9.0000000E+01  1.0000000E+00 -9.7000000E+01 -7.0000000E+00
  0.0000000E+00  9.5000000E+01  1.0000000E+00 -9.7000000E+01 -2.0000000E+00
  5.0000000E+01  9.5000000E+01  1.0000000E+00 -9.7000000E+01 -2.0000000E+00
  0.0000000E+00  1.0000000E+02  1.0000000E+00 -9.7000000E+01  3.0000000E+00
  5.0000000E+01  1.0000000E+02  1.0000000E+00 -9.7000000E+01  3.0000000E+00
  0.0000000E+00  1.0500000E+02  1.0000000E+00 -9.7000000E+01  8.0000000E+00
  5.0000000E+01  1.0500000E+02  1.0000000E+00 -9.7000000E+01  8.0000000E+00
  0.0000000E+00  1.1000000E+02  1.0000000E+00 -9.7000000E+01  1.3000000E+01
  5.0000000E+01  1.1000000E+02  1.0000000E+00 -9.7000000E+01  1.3000000E+01
  0.0000000E+00  1.1500000E+02  1.0000000E+00 -9.7000000E+01  1.8000000E+01
  5.0000000E+01  1.1500000E+02  1.0000000E+00 -9.7000000E+01  1.8000000E+01
  0.0000000E+00  1.2000000E+02  1.0000000E+00 -9.6999999E+01  2.3000001E+01
  5.0000000E+01  1.2000000E+02  1.0000000E+00 -9.6999999E+01  2.3000001E+01
  0.0000000E+00  1.2500000E+02  1.0000000E+00 -9.6999996E+01  2.8000004E+01
  5.0000000E+01  1.2500000E+02  1.0000000E+00 -9.6999996E+01  2.8000004E+01
  0.0000000E+00  1.3000000E+02  1.0000000E+00 -9.6999987E+01  3.3000013E+01
  5.0000000E+01  1.3000000E+02  1.0000000E+00 -9.6999987E+01  3.3000013E+01
  0.0000000E+00  1.3500000E+02  1.0000000E+00 -9.6999957E+01  3.8000043E+01
  5.0000000E+01  1.3500000E+02  1.0000000E+00 -9.6999957E+01  3.8000043E+01
  0.0000000E+00  1.4000000E+02  1.0000000E+00 -9.6999866E+01  4.3000134E+01
  5.0000000E+01  1.4000000E+02  1.0000000E+00 -9.6999866E+01  4.3000134E+01
  0.0000000E+00  1.4500000E+02  1.0000000E+00 -9.6999612E+01  4.8000388E+01
  5.0000000E+01  1.4500000E+02  1.0000000E+00 -9.6999612E+01  4.8000388E+01
  0.0000000E+00  1.5000000E+02  1.0000000E+00 -9.6998915E+01  5.3001085E+01
  5.0000000E+01  1.5000000E+02  1.0000000E+00 -9.6998915E+01  5.3001085E+01
  0.0000000E+00  1.5500000E+02  1.0000000E+00 -9.6996916E+01  5.8003084E+01
  5.0000000E+01  1.5500000E+02  1.0000000E+00 -9.6996916E+01  5.8003084E+01
  0.0000000E+00  1.6000000E+02  1.0000000E+00 -9.6990494E+01  6.3009506E+01
  5.0000000E+01  1.6000000E+02  1.0000000E+00 -9.6990494E+01  6.3009506E+01
  0.0000000E+00  1.6500000E+02  1.0000000E+00 -9.6967288E+01  6.8032712E+01
  5.0000000E+01  1.6500000E+02  1.0000000E+00 -9.6967288E+01  6.8032712E+01
  0.0000000E+00  1.7000000E+02  1.0000000E+00 -9.6878668E+01  7.3121332E+01
  5.0000000E+01  1.7000000E+02  1.0000000E+00 -9.6878668E+01  7.3121332E+01
  0.0000000E+00  1.7500000E+02  1.0000000E+00 -9.6550831E+01  7.8449169E+01
  5.0000000E+01  1.7500000E+02  1.0000000E+00 -9.6550831E+01  7.8449169E+01
  0.0000000E+00  1.8000000E+02  1.0000000E+00 -9.5511471E+01  8.4488529E+01
  5.0000000E+01  1.8000000E+02  1.0000000E+00 -9.5511471E+01  8.4488529E+01
  0.0000000E+00  1.8500000E+02  1.0000000E+00 -9.3045300E+01  9.1954700E+01
  5.0000000E+01  1.8500000E+02  1.0000000E+00 -9.3045300E+01  9.1954700E+01
  0.0000000E+00  1.9000000E+02  1.0000000E+00 -8.8806163E+01  1.0119384E+02
  5.0000000E+01  1.9000000E+02  1.0000000E+00 -8.8806163E+01  1.0119384E+02
  0.0000000E+00  1.9500000E+02  1.0000000E+00 -8.3196565E+01  1.1180343E+02
  5.0000000E+01  1.9500000E+02  1.0000000E+00 -8.3196565E+01  1.1180343E+02
  0.0000000E+00  2.0000000E+02  1.0000000E+00 -7.7134154E+01  1.2286585E+02
  5.0000000E+01  2.0000000E+02  1.0000000E+00 -7.7134154E+01  1.2286585E+02
      1      2      4      3
      3      4      6      5
      5      6      8      7
      7      8     10      9
      9     10     12     11
     11     12     14     13
     13     14     16     15
     15     16     18     17
     17     18     20     19
     19     20     22     21
     21     22     24     23
     23     24     26     25
     25     26     28     27
     27     28     30     29
     29     30     32     31
     31     32     34     33
     33     34     36     35
     35     36     38     37
     37     38     40     39
     39     40     42     41
     41     42     44     43
     43     44     46     45
     45     46     48     47
     47     48     50     49
     49     50     52     51
     51     52     54     53
     53     54     56     55
     55     56     58     57
     57     58     60     59
     59     60     62     61
     61     62     64     63
     63     64     66     65
     65     66     68     67
     67     68     70     69
     69     70     72     71
     71     72     74     73
     73     74     76     75
     75     76     78     77
     77     78     80     79
     79     80     82     81
ZONE T="       3", N=       82, E=       40, F=FEPOINT, ET=QUADRILATERAL, SOLUTIONTIME=  1.8200000E-01
  0.0000000E+00  0.0000000E+00  1.0000000E+00  0.0000000E+00  0.0000000E+00
  5.0000000E+01  0.0000000E+00  1.0000000E+00  0.0000000E+00  0.0000000E+00
  0.0000000E+00  5.0000000E+00  1.0000000E+00 -1.2767260E+01 -7.7672603E+00
  5.0000000E+01  5.0000000E+00  1.0000000E+00 -1.2767260E+01 -7.7672603E+00
  0.0000000E+00  1.0000000E+01  1.0000000E+00 -2.6279307E+01 -1.6279307E+01
  5.0000000E+01  1.0000000E+01  1.0000000E+00 -2.6279307E+01 -1.6279307E+01
  0.0000000E+00  1.5000000E+01  1.0000000E+00 -4.0282608E+01 -2.5282608E+01
  5.0000000E+01  1.5000000E+01  1.0000000E+00 -4.0282608E+01 -2.5282608E+01
  0.0000000E+00  2.0000000E+01  1.0000000E+00 -5.4400990E+01 -3.4400990E+01
  5.0000000E+01  2.0000000E+01  1.0000000E+00 -5.4400990E+01 -3.4400990E+01
  0.0000000E+00  2.5000000E+01  1.0000000E+00 -6.8087770E+01 -4.3087770E+01
  5.0000000E+01  2.5000000E+01  1.0000000E+00 -6.8087770E+01 -4.3087770E+01
  0.0000000E+00  3.0000000E+01  1.0000000E+00 -8.0517967E+01 -5.0517967E+01
  5.0000000E+01  3.0000000E+01  1.0000000E+00 -8.0517967E+01 -5.0517967E+01
  0.0000000E+00  3.5000000E+01  1.0000000E+00 -9.0422817E+01 -5.5422817E+01
  5.0000000E+01  3.5000000E+01  1.0000000E+00 -9.0422817E+01 -5.5422817E+01
  0.0000000E+00  4.0000000E+01  1.0000000E+00 -9.6032182E+01 -5.6032182E+01
  5.0000000E+01  4.0000000E+01  1.0000000E+00 -9.6032182E+01 -5.6032182E+01
  0.0000000E+00  4.5000000E+01  1.0000000E+00 -9.7053803E+01 -5.2053803E+01
  5.0000000E+01  4.5000000E+01  1.0000000E+00 -9.7053803E+01 -5.2053803E+01
  0.0000000E+00  5.0000000E+01  1.0000000E+00 -9.6995657E+01 -4.6995657E+01
  5.0000000E+01  5.0000000E+01  1.0000000E+00 -9.6995657E+01 -4.6995657E+01
  0.0000000E+00  5.5000000E+01  1.0000000E+00 -9.7000169E+01 -4.2000169E+01
  5.0000000E+01  5.5000000E+01  1.0000000E+00 -9.7000169E+01 -4.2000169E+01
  0.0000000E+00  6.0000000E+01  1.0000000E+00 -9.7000020E+01 -3.7000020E+01
  5.0000000E+01  6.0000000E+01  1.0000000E+00 -9.7000020E+01 -3.7000020E+01
  0.0000000E+00  6.5000000E+01  1.0000000E+00 -9.6999997E+01 -3.1999997E+01
  5.0000000E+01  6.5000000E+01  1.0000000E+00 -9.6999997E+01 -3.1999997E+01
  0.0000000E+00  7.0000000E+01  1.0000000E+00 -9.7000000E+01 -2.7000000E+01
  5.0000000E+01  7.0000000E+01  1.0000000E+00 -9.7000000E+01 -2.7000000E+01
  0.0000000E+00  7.5000000E+01  1.0000000E+00 -9.7000000E+01 -2.2000000E+01
  5.0000000E+01  7.5000000E+01  1.0000000E+00 -9.7000000E+01 -2.2000000E+01
  0.0000000E+00  8.0000000E+01  1.0000000E+00 -9.7000000E+01 -1.7000000E+01
  5.0000000E+01  8.0000000E+01  1.0000000E+00 -9.7000000E+01 -1.7000000E+01
  0.0000000E+00  8.5000000E+01  1.0000000E+00 -9.7000000E+01 -1.2000000E+01
  5.0000000E+01  8.5000000E+01  1.0000000E+00 -9.7000000E+01 -1.2000000E+01
  0.0000000E+00  9.0000000E+01  1.0000000E+00 -9.7000000E+01 -7.0000000E+00
  5.0000000E+01  9.0000000E+01  1.0000000E+00 -9.7000000E+01 -7.0000000E+00
  0.0000000E+00  9.5000000E+01  1.0000000E+00 -9.7000000E+01 -2.0000000E+00
  5.0000000E+01  9.5000000E+01  1.0000000E+00 -9.7000000E+01 -2.0000000E+00
  0.0000000E+00  1.0000000E+02  1.0000000E+00 -9.7000000E+01  3.0000001E+00
  5.0000000E+01  1.0000000E+02  1.0000000E+00 -9.7000000E+01  3.0000001E+00
  0.0000000E+00  1.0500000E+02  1.0000000E+00 -9.7000000E+01  8.0000002E+00
  5.0000000E+01  1.0500000E+02  1.0000000E+00 -9.7000000E+01  8.0000002E+00
  0.0000000E+00  1.1000000E+02  1.0000000E+00 -9.6999999E+01  1.3000001E+01
  5.0000000E+01  1.1000000E+02  1.0000000E+00 -9.6999999E+01  1.3000001E+01
  0.0000000E+00  1.1500000E+02  1.0000000E+00 -9.6999998E+01  1.8000002E+01
  5.0000000E+01  1.1500000E+02  1.0000000E+00 -9.6999998E+01  1.8000002E+01
  0.0000000E+00  1.2000000E+02  1.0000000E+00 -9.6999992E+01  2.3000008E+01
  5.0000000E+01  1.2000000E+02  1.0000000E+00 -9.6999992E+01  2.3000008E+01
  0.0000000E+00  1.2500000E+02  1.0000000E+00 -9.6999973E+01  2.8000027E+01
  5.0000000E+01  1.2500000E+02  1.0000000E+00 -9.6999973E+01  2.8000027E+01
  0.0000000E+00  1.3000000E+02  1.0000000E+00 -9.6999912E+01  3.3000088E+01
  5.0000000E+01  1.3000000E+02  1.0000000E+00 -9.6999912E+01  3.3000088E+01
  0.0000000E+00  1.3500000E+02  1.0000000E+00 -9.6999717E+01  3.8000283E+01
  5.0000000E+01  1.3500000E+02  1.0000000E+00 -9.6999717E+01  3.8000283E+01
  0.0000000E+00  1.4000000E+02  1.0000000E+00 -9.6999084E+01  4.3000916E+01
  5.0000000E+01  1.4000000E+02  1.0000000E+00 -9.6999084E+01  4.3000916E+01
  0.0000000E+00  1.4500000E+02  1.0000000E+00 -9.6997025E+01  4.8002975E+01
  5.0000000E+01  1.4500000E+02  1.0000000E+00 -9.6997025E+01  4.8002975E+01
  0.0000000E+00  1.5000000E+02  1.0000000E+00 -9.6990284E+01  5.3009716E+01
  5.0000000E+01  1.5000000E+02  1.0000000E+00 -9.6990284E+01  5.3009716E+01
  0.0000000E+00  1.5500000E+02  1.0000000E+00 -9.6968203E+01  5.8031797E+01
  5.0000000E+01  1.5500000E+02  1.0000000E+00 -9.6968203E+01  5.8031797E+01
  0.0000000E+00  1.6000000E+02  1.0000000E+00 -9.6896940E+01  6.3103060E+01
  5.0000000E+01  1.6000000E+02  1.0000000E+00 -9.6896940E+01  6.3103060E+01
  0.0000000E+00  1.6500000E+02  1.0000000E+00 -9.6676776E+01  6.8323224E+01
  5.0000000E+01  1.6500000E+02  1.0000000E+00 -9.6676776E+01  6.8323224E+01
  0.0000000E+00  1.7000000E+02  1.0000000E+00 -9.6061838E+01  7.3938162E+01
  5.0000000E+01  1.7000000E+02  1.0000000E+00 -9.6061838E+01  7.3938162E+01
  0.0000000E+00  1.7500000E+02  1.0000000E+00 -9.4634813E+01  8.0365187E+01
  5.0000000E+01  1.7500000E+02  1.0000000E+00 -9.4634813E+01  8.0365187E+01
  0.0000000E+00  1.8000000E+02  1.0000000E+00 -9.2035690E+01  8.7964310E+01
  5.0000000E+01  1.8000000E+02  1.0000000E+00 -9.2035690E+01  8.7964310E+01
  0.0000000E+00  1.8500000E+02  1.0000000E+00 -8.8264571E+01  9.6735429E+01
  5.0000000E+01  1.8500000E+02  1.0000000E+00 -8.8264571E+01  9.6735429E+01
  0.0000000E+00  1.9000000E+02  1.0000000E+00 -8.3675910E+01  1.0632409E+02
  5.0000000E+01  1.9000000E+02  1.0000000E+00 -8.3675910E+01  1.0632409E+02
  0.0000000E+00  1.9500000E+02  1.0000000E+00 -7.8763858E+01  1.1623614E+02
  5.0000000E+01  1.9500000E+02  1.0000000E+00 -7.8763858E+01  1.1623614E+02
  0.0000000E+00  2.0000000E+02  1.0000000E+00 -7.3974552E+01  1.2602545E+02
  5.0000000E+01  2.0000000E+02  1.0000000E+00 -7.3974552E+01  1.2602545E+02
      1      2      4      3
      3      4      6      5
      5      6      8      7
      7      8     10      9
      9     10     12     11
     11     12     14     13
     13     14     16     15
     15     16     18     17
     17     18     20     19
     19     20     22     21
     21     22     24     23
     23     24     26     25
     25     26     28     27
     27     28     30     29
     29     30     32     31
     31     32     34     33
     33     34     36     35
     35     36     38     37
     37     38     40     39
     39     40     42     41
     41     42     44     43
     43     44     46     45
     45     46     48     47
     47     48     50     49
     49     50     52     51
     51     52     54     53
     53     54     56     55
     55     56     58     57
     57     58     60     59
     59     60     62     61
     61     62     64     63
     63     64     66     65
     65     66     68     67
     67     68     70     69
     69     70     72     71
     71     72     74     73
     73     74     76     75