# vtk DataFile Version 3.0
d-2__ created by libgimli-v1.5.0-1-g5991b6ac
ASCII
DATASET UNSTRUCTURED_GRID
POINTS 3840 double
393.4375	-4	0
392.50261281894	-4.7749852745342	0
393.4052063857	-5.3564901216657	0
343.984375	0	0
344.51999784735	-1.4795132406207	0
345	0	0
294.55804607227	-4.9666376119159	0
295	-4	0
293.76770895073	-4.2365886756513	0
311.79616474311	-6.8233880356196	0
310.5766902632	-6.382108837228	0
310.78227018001	-7.3420293179073	0
287.58986545465	-2.1348678261905	0
288.63703630345	-1.2703833774464	0
287.59960738359	-0.94626727810042	0
366.875	-4	0
367.81550750114	-4.8992230971021	0
368.4375	-4	0
281.46887725838	-0.952721534074	0
282.03125	0	0
281.015625	0	0
280	0	0
280.39693858995	-0.88892544758191	0
350.65672363215	-6.9308214117629	0
351.98287838049	-7.0241340972017	0
351.32215866858	-5.9481901378182	0
282.42250010308	-0.82491880625552	0
311.41823775575	-4.7704103245043	0
310.18558704021	-5.1596948384419	0
311.49381876306	-5.6772246614796	0
286.53579450805	-1.3173446586548	0
286.09375	0	0
285.36259461631	-1.0450092271091	0
354.85987295812	-4.8137608914302	0
355.69155648649	-4.8127568600125	0
355.15625	-4	0
287.109375	0	0
284.46770316684	-0.84050465871951	0
285.078125	0	0
319.03946993658	-1.2296877582801	0
319.609375	0	0
318.59375	0	0
286.50524139653	-10.566374608421	0
285.37726564816	-10.623271667497	0
286.05236085016	-11.514504020962	0
288.125	0	0
295.78125	-4	0
295.40578500297	-4.7665241623714	0
291.171875	0	0
290.15625	0	0
290.71761225457	-1.2830341810474	0
291.87276597204	-1.0154485232342	0
300.3125	0	0
301.05243366303	-1.4072929467503	0
301.328125	0	0
289.66683746678	-0.93239714120065	0
306.40625	0	0
306.93186779665	-1.1964698503333	0
307.421875	0	0
356.4604132275	-1.4385526979774	0
357.1875	0	0
356.171875	0	0
301.86811503677	-2.5503649039887	0
302.32809447034	-1.664465308466	0
369.375	0	0
369.85212427245	-1.3720475164162	0
370.390625	0	0
293.78159676859	-1.1223750851273	0
294.21875	0	0
293.203125	0	0
292.1875	0	0
329.375	-4	0
330.37746500343	-5.0713333911853	0
330.9375	-4	0
294.77576886306	-0.81195944516695	0
295.234375	0	0
381.5625	0	0
382.19755093082	-1.3405127331197	0
382.578125	0	0
351.94562086809	-4.9991585566295	0
353.24491053952	-5.1734011394914	0
352.8125	-4	0
295.71359444086	-0.95114896719654	0
403.00061662985	-9.1878521384715	0
403.68687437918	-10.05808471809	0
404.2966990142	-8.9229783515635	0
298.71404579393	-1.8098437319458	0
299.68740076424	-1.0339259283522	0
298.77946675612	-0.74573236194281	0
294.92950494961	-1.92661394827	0
350.078125	0	0
350.58017478686	-1.3367304754959	0
351.09375	0	0
331.796875	0	0
332.19068424886	-1.2994807861023	0
332.8125	0	0
312.1875	-4	0
310.625	-4	0
298.28125	0	0
299.296875	0	0
326.91018500894	-4.976802981999	0
325.65785383285	-4.9742209380231	0
326.25608562367	-5.8675807846009	0
301.99207108045	-0.78459743351429	0
305.69669627631	-2.0850267182254	0
306.98785846741	-2.5030995742915	0
312.76050029304	-1.4211135536996	0
313.515625	0	0
312.5	0	0
370	-4	0
369.06088690275	-4.8746145384386	0
370.17875320053	-4.8641372944272	0
302.88045125557	-0.85819679584791	0
302.34375	0	0
396.45894610901	-5.7145411579008	0
395.96768324966	-4.618388804369	0
395.40399663671	-5.7366729744889	0
304.93628140713	-0.95955410287903	0
305.87317809444	-0.85022664612971	0
305.390625	0	0
312.47229046448	-5.9791161601061	0
312.6070566332	-5.0287539868947	0
387.65625	0	0
388.08206138996	-1.2586652966085	0
388.671875	0	0
303.88344899184	-0.91968928872201	0
303.359375	0	0
375.46875	0	0
376.10574514513	-1.1753366968261	0
376.484375	0	0
325.703125	0	0
326.16196970992	-1.2581153271403	0
326.71875	0	0
307.97298549384	-0.8477126071853	0
362.63810739414	-1.4027050721726	0
363.28125	0	0
362.265625	0	0
342.96875	0	0
342.43195084659	-0.86589652283408	0
343.38459924627	-0.82667701336066	0
373.02138010863	-6.821715635421	0
372.07649938088	-6.9883020832017	0
372.47119717388	-7.9553211347726	0
337.890625	0	0
338.41286396228	-1.1871357200026	0
338.90625	0	0
308.4375	0	0
343.60027906835	-2.6034888361227	0
344.57928438406	-3.0093779570962	0
311.40024732242	-1.6785701149972	0
311.82268512633	-0.79785878016754	0
308.92048576671	-0.98267933948801	0
284.41970615433	-1.9973208928939	0
285.55509174574	-2.1028413702753	0
286.40968945282	-2.9848116795472	0
282.13695612389	-1.9728235417775	0
283.4083076065	-1.1521237123851	0
313.9862196013	-0.93813860791116	0
314.53125	0	0
309.97130377407	-0.92580814491755	0
309.453125	0	0
317.14676796222	-0.91705832926217	0
317.578125	0	0
316.5625	0	0
314.12888811295	-2.2016456624909	0
291.6543863528	-2.0272704206129	0
290.83035847888	-2.8836127355824	0
352.91602253366	-10.134485533113	0
352.19735469429	-9.0322003529117	0
351.70283085736	-10.320620405053	0
327.07929846623	-2.1489297951	0
327.015849218	-3.1308642495352	0
327.85059520895	-2.9236147282085	0
289.140625	0	0
300.89981720767	-2.9759326975783	0
320.26098415413	-1.00226801807	0
320.625	0	0
307.789272931	-3.1595063600271	0
308.13234390931	-1.9859087817819	0
325.00066344735	-0.99062793561466	0
325.27302683146	-1.9469962102194	0
323.125	-4	0
323.99310448701	-3.1130839651538	0
323.04851302677	-2.7059586012172	0
355.15625	0	0
355.5027884441	-0.80255424451609	0
326.25	-4	0
327.8125	-4	0
314.96711838561	-1.0323033001413	0
318.05005835823	-0.78877421647846	0
368.64483320079	-1.0123385044436	0
368.359375	0	0
324.13166694583	-0.77042235927407	0
324.6875	0	0
292.7594785566	-0.81761725708873	0
327.33538839146	-1.0495020137095	0
328.34373232232	-0.93169954576603	0
328.75	0	0
327.734375	0	0
374.453125	0	0
373.90336536992	-0.99662692469438	0
374.93155748809	-1.0252705878641	0
381.01983735961	-0.85354121262119	0
380.546875	0	0
299.91823274161	-2.2583405022596	0
330.19794103332	-0.75301294825561	0
331.04598502844	-0.98733249417209	0
330.78125	0	0
333.39671037977	-1.0705958395465	0
296.25	0	0
383.0225057768	-2.524723627037	0
381.82231810055	-2.9060470074484	0
292.74757841561	-1.9177316724895	0
304.16640574164	-7.005306811656	0
304.22809051783	-5.9930209470765	0
303.2563197259	-6.5601398195801	0
333.828125	0	0
334.4144886259	-0.9314831682955	0
336.875	0	0
336.4321252692	-0.91036497228082	0
337.36443442591	-0.80443965449245	0
334.84375	0	0
335.89305097753	-1.8530837120881	0
337.22989477039	-1.9046950011967	0
311.484375	0	0
310.94543225169	-0.84704234646165	0
339.57365616978	-0.95142431788953	0
339.921875	0	0
340.50604701261	-0.83253679682792	0
340.9375	0	0
387.07049881964	-0.83656129053722	0
386.640625	0	0
382.93685533341	-17.115792535038	0
381.97487337643	-17.238437036181	0
382.40524855336	-18.111732905637	0
335.39625048694	-0.8945013109977	0
349.46503819465	-1.0494151221057	0
349.0625	0	0
354.60792156995	-0.84643469058635	0
354.140625	0	0
329.41341813253	-6.1166373385165	0
330.40105762282	-7.2110051105709	0
330.66044375945	-6.1671322794085	0
395.18456186455	-1.2112893956934	0
394.18638513584	-0.84902352307822	0
393.99659798613	-1.9734294154463	0
345.60818190735	-0.80260842102148	0
346.015625	0	0
379.0206774405	-0.91728925907949	0
380.05907909793	-0.931247134766	0
379.53125	0	0
361.25	0	0
361.62465282936	-0.79024584248235	0
350.67236874442	-5.0001160200219	0
348.47960196066	-0.95558219643046	0
347.49900171902	-0.89481185672195	0
347.03125	0	0
346.52151195541	-0.85111642214315	0
360.73425951357	-0.842297131085	0
360.234375	0	0
359.75038476908	-0.93798271471133	0
329.33826083613	-0.87982065682279	0
329.765625	0	0
311.74889590947	-2.7599086442202	0
312.91658977428	-2.8792650421677	0
351.74235302205	-1.0519367120935	0
321.14194584921	-0.76092132586178	0
321.640625	0	0
352.69214747466	-0.88500059672257	0
352.109375	0	0
318.81766372374	-2.6958273079138	0
320.0624506565	-2.2657408577226	0
355.11344232618	-1.7038619940214	0
354.50332358789	-2.5609103393333	0
355.50489749204	-2.8523413084965	0
331.21984143449	-1.9463165784386	0
357.67670550335	-0.94651502774286	0
358.203125	0	0
330.0563309587	-1.876605305809	0
368.81026505725	-1.9837045460312	0
351.6130314032	-2.3702068280956	0
325.06344780027	-2.9281369304614	0
324.6875	-4	0
341.43579400187	-0.83520617486589	0
341.953125	0	0
361.24650763983	-1.6699656140439	0
371.46106457214	-1.7880542190635	0
371.91665219327	-0.93841520090926	0
370.96313168768	-0.98261900682081	0
358.67387727579	-1.0388096125026	0
359.21875	0	0
345.51623074583	-2.565260989825	0
407.3680055203	-1.8558220909976	0
406.4821413472	-1.235533723521	0
406.60207979165	-2.7897875311742	0
363.82360702711	-0.90107819047256	0
364.296875	0	0
364.80578842115	-0.9769966116454	0
372.89240132069	-0.96674400833434	0
372.421875	0	0
370.56839356395	-5.7072952055234	0
369.96500043671	-6.6167151291286	0
371.16922622587	-6.5732359050971	0
350.33038884711	-2.7799031848385	0
364.11384555695	-2.0611632363661	0
365.3125	0	0
367.34375	0	0
367.78739457331	-0.76980698343645	0
369.47564707304	-2.8047211426978	0
368.3789342761	-2.761622414063	0
371.40625	0	0
375.34039144779	-1.9318291984467	0
374.41392728334	-1.975401279667	0
380.68569797623	-1.9714566058449	0
363.07944241847	-2.9088847116085	0
361.7075449582	-2.7610009452676	0
377.07915796992	-0.79593995555449	0
356.65219754168	-2.9043165406842	0
390.16430103795	-0.75408813729143	0
390.703125	0	0
389.6875	0	0
379.49458375687	-1.8318033621357	0
386.83630147285	-1.9891148588406	0
386.14988999571	-0.93950986741044	0
377.5	0	0
377.99105188716	-0.906496590844	0
394.18584901692	-3.0930971788814	0
395.10983181279	-2.6082937924763	0
393.75	0	0
393.25258882413	-0.99571101151871	0
402.46767109932	-2.0209522670544	0
403.47823276735	-1.2172624876182	0
402.41940649241	-0.90895285396883	0
383.59375	0	0
383.21306977755	-0.76831809193062	0
396.19139831529	-2.0200123243835	0
397.15272297211	-2.6945132558598	0
397.26443497592	-1.2468572673135	0
378.515625	0	0
406.953125	0	0
405.9375	0	0
385.78852469365	-13.252634907257	0
386.3233945128	-12.112597224151	0
385.2160291268	-12.085699580006	0
384.609375	0	0
384.11527724156	-0.85197126925808	0
385.11880851651	-0.91569120199222	0
404.921875	0	0
405.3301164642	-0.9827775827968	0
347.88857411183	-1.8166094761113	0
389.29390349185	-0.98168574552735	0
390.0886079788	-1.6926901961283	0
[...]
CELL_DATA 7354
SCALARS Coverage double 1
LOOKUP_TABLE default
0.50039484546332 1.6025153052243 0.51679731322763 0.45622666871259 1.0505058635793 0.67080125856679 1.5086837190596 1.3544797072887 0.46950782255557 0.89816566151122 0.582475468501 1.2871643427919 0.61004831337994 1.5606440326742 1.2169545485941 1.639773902991 0.17459921376231 1.7114888121927 0.61007410111695 1.6463526224716 1.3240719924456 1.5714141812484 1.1718482376118 1.6013920099795 1.3139044019315 1.6492969984603 1.1077627217712 1.5472259436264 1.6157997815417 1.6051993861652 0.70385301132623 1.1960538819515 1.6582632908322 1.6594291124611 0.58656302544562 1.3868041226645 0.23912781000862 1.1924698050239 1.0681065663391 1.6233242486061 1.157836295372 1.6944532523089 0.69422824680888 1.6002829011353 0.57977498668186 1.3466275643225 0.90430056796257 1.5997893207268 0.61719834161431 1.1903148521522 0.43116485581426 1.360912907561 0.55158431061127 1.6085458464913 1.2607549972272 1.6161749132283 1.7363179558822 1.6109454546927 1.3310487813352 1.6067861342526 1.2211590545702 0.45374038915724 1.6006585026456 1.6570280869572 0.73679051757689 1.060195175648 1.1727545516659 1.6745890866407 0.86083795577543 0.82837168574228 0.9798572543957 1.6551938723596 1.2788978686745 1.6684403214876 1.3311443068639 1.1599218135424 1.6497363318868 1.0366852479826 0.78210406249096 0.2406926593127 0.66991045398136 1.6003463008965 0.88130700502322 1.6474853492981 0.72998711074446 1.1053940842909 0.59505796443881 1.6109781129181 0.50788782430437 1.6228320351733 1.3004923159535 1.6545761226511 1.1921760724874 1.6847218224275 1.6118393003428 1.222087900051 1.2498792199804 1.1526126741471 1.6384328541973 1.2379788285726 1.7241788493909 1.3440286969756 1.0039325503282 1.342401034141 1.1653176841992 1.6328153338769 1.2509914542594 0.87472224486148 1.6215845288946 1.0513447196147 0.45909193110469 1.2471487286465 1.2121171923487 1.5724983703168 0.97658893035213 1.589148713074 1.3894891162085 1.1943813469939 1.1495725824448 1.3853338089351 1.6662365219933 1.618959498503 1.6450617633628 -0.25602016596162 1.1978867965453 1.6647075890881 1.7343068324872 1.6289925754884 1.3110301608653 1.6730246717174 0.50552296958409 1.5641617300837 1.0915221449519 1.6481210326071 1.667294162647 1.2553587437161 1.1297682467281 1.621502319907 0.58504817113906 1.6657640465016 1.2129904895955 1.2219449668145 1.2993424167148 1.4163343026849 1.3643379736701 0.77243292524241 1.1703069973101 1.6846136234351 1.3746501342932 1.6188625561389 1.2965479557728 0.84410608508455 0.77561189908223 1.1019917275869 1.1188613164537 1.5897840016157 1.0153282269124 1.0428959210143 1.2305967609384 1.0003556008451 0.51062910657791 1.0491014323446 1.4079576243888 1.3744856818314 1.0938153873974 1.3381706558324 1.1495192388536 1.1726076788885 0.7543141144241 0.79414772921594 1.0914656098341 1.5979194260468 1.3427433403972 1.3492071118544 1.2997343158666 1.3246506407643 0.48014056039952 0.8030168608769 1.2596566547312 1.01714133282 1.7067898193728 1.6481011652609 1.1482205276582 0.62703971867327 1.2787588536672 1.6545761407821 0.96970374794488 1.6158219934587 1.1321761402034 1.0416468331149 1.1476547018118 1.0918789239794 1.2587423764729 0.80399536514524 1.3620147899231 0.76120238687649 1.1423537774951 1.6561692476705 1.0112092428808 1.226905420437 1.1305501690203 1.6254275056398 0.69450341790943 1.1903213449214 1.3228529016652 1.0283327910445 1.6653113487785 1.2481649813119 0.81156897486287 1.5681909060632 1.155192584901 1.6205765354736 -0.015225165770275 1.6588866042226 1.3840925459562 1.3231485545686 1.6389121941167 1.1847571272013 1.6340213184163 0.86710571893434 1.1874944155346 1.6140359616705 1.5852575197349 1.1069775421131 1.6583164831225 1.3023907826714 1.0497929704242 1.2025865575386 1.6203876286217 1.5177110542582 1.6459514731856 1.6917545070658 1.6520025399403 1.1838347418552 1.0881350886807 1.1374627018215 1.6696547565542 0.99997528401101 1.2065107210561 1.6816698508498 1.3821957513079 1.6366460120232 1.5126916831717 1.3161125001922 1.03505437215 1.072907337297 1.6875102406518 1.3322288047002 1.2190956651101 1.6500260777324 0.6012885470763 1.0361839393616 1.584620526623 1.2073433782146 1.1762473575616 1.0088721186835 1.1731032977529 1.6639668217521 1.211629880014 1.0497723941483 0.98095407071051 1.6652426060454 0.1272251005589 1.3643498966967 1.1558548271438 1.2031124360017 0.83538822951748 1.53586792067 1.7110843717462 1.6447838995903 1.002090579522 0.94552594333259 1.6303276451914 1.2023634757854 1.7218745283853 1.1855477159221 0.63527092191109 1.2758844278889 0.59482377400473 0.59043519639164 0.93986410132108 0.71628066549301 1.1566386014733 1.5975204160783 1.0616450931906 1.3266973615728 1.7121501794893 0.62661493588331 1.2707460062887 1.6541908247012 0.99031626252825 1.0746999134848 1.2127290148844 1.6733298292371 0.89233107875099 0.94036446880962 0.97612597057378 0.78639818550981 1.3828672581315 1.6708594392907 1.0536070061362 1.6320321354442 0.99186472247191 1.3406596483362 0.98006059699127 1.0972297975298 0.55508951017342 1.7094064568569 0.69461467159928 0.94195575803632 0.96371587649016 1.6685978200164 0.59661342704138 0.78365579515476 0.96022429549948 0.64715049037681 1.1625756289577 1.7265904299201 0.38163205229216 1.6044759892583 0.6959083432692 0.90051319427621 0.88324857692805 1.2277141234207 1.1737154631021 1.0405781584995 1.3830361083053 0.50346322467148 1.6529830871285 1.1846879774173 0.87114560025285 1.0650677802529 1.653853632211 1.0433634201249 1.3402381349122 1.0212601603737 1.2161549437569 0.99978698975906 1.3408474237816 1.2050388060698 1.0292436479498 0.96974544531828 0.7344665823876 0.63479097319489 1.6045712034957 1.5868735285287 0.9843990269091 1.6793602652907 0.35164677934759 0.68098770158305 1.0470426088455 0.89723291499597 1.0572710110217 0.8368417594633 0.64225083631037 1.2027056088939 0.87099649419592 0.90966560846703 1.0670818248335 0.81669485912468 0.27200954375288 0.56081963698966 0.94998945276369 0.60336099893637 1.6353648752246 1.0127040754416 1.3752548575299 0.88176414826938 0.92544582975823 0.69604422682068 1.653204749541 0.47981300536472 1.0855774229391 1.1427441311306 1.5849071467287 0.51688090145279 1.1721767164301 1.1432359673253 1.2187345506161 0.61917592136215 1.0421651085946 0.64388181121517 1.6595069800371 1.5723741639557 0.53049469761024 0.62731204594108 1.1937162253527 0.96122297780672 1.6522899826731 0.7349061698804 1.0473252898702 0.71160696201792 1.0925594013522 1.0616461275015 1.6540957875548 0.45082786949908 0.90470827637207 0.98071115632944 1.5979314447848 0.60999217529763 1.1144199567276 1.0440813226715 0.5124108539034 0.95870402825892 1.0955791149027 1.143078461364 1.6643455152241 0.62687739057842 1.7102283687189 0.62535393586785 0.59734155254752 1.1778466700191 1.0798591215975 0.61725887638585 1.6604318412507 0.43793365398651 0.61399864289517 0.53906937116975 1.2012148652092 0.73319112747475 1.2304114357531 1.6689221034597 0.51642014013721 1.0642730644124 1.3287242103176 1.0246502300491 0.97907269503597 1.3442386938157 0.74938524265051 0.7021132213468 0.75544453114301 0.99001247941686 0.046166347155709 0.64998021408096 1.2643488988539 0.82481504168721 1.2308855509694 1.2186859637413 1.0000515939953 0.54400190016197 1.2088647103333 0.73069165278182 0.45577358012316 0.81478805871259 1.0129343747588 0.6334520185251 1.0991901350654 0.65303624090698 1.6457666598484 1.116007398077 0.80886860657314 0.76022010031038 0.70940932030711 0.64595897690596 1.6178189420119 1.0815989158181 0.61520145102356 0.54156649959553 0.58703734311057 0.63059227933975 1.2156070396795 1.1606359534979 1.0080184463625 0.53479887175942 1.6283453118434 0.91999008964741 1.1401166227135 0.61215602279492 1.0066902969949 0.52504530842551 1.7215512410582 0.9945901711088 0.535001758546 0.645429459148 0.62909717345269 0.55917668973325 1.0071213381679 1.1650908137335 1.2870791290615 0.98715016336088 0.54520127976842 0.57850821547936 1.239669675082 1.397351583404 0.53931989886417 0.46691952713321 0.97604360454204 0.59621033484541 1.0199412213006 1.391992114257 1.1592885037486 1.0118139641676 0.53631201123902 0.60879505280303 0.52782228292353 0.62118186418132 0.58292410282771 0.81270365645171 1.0027789823849 1.3747488505498 0.93920046621417 1.182589500123 0.97497245181959 1.1937786986819 0.58585923676822 1.1176579221092 1.2309055256321 0.51661435629564 0.5770257737867 0.42563374850058 1.2126960784603 1.1498995899782 0.98278208024934 0.58530629435927 1.1621638092672 0.52647377855851 0.78321418164429 1.2251569979421 0.62273269691381 0.76732641344838 0.94531486287848 0.94159524725429 0.98281647926114 0.60547432732656 1.6362862528934 0.5072637951483 1.1757207226451 1.188304323769 1.0498137662785 0.74487974001978 1.0038022506618 1.1437787850884 0.61073676917145 1.1613258993215 1.1112231871577 0.62644170833358 0.72898352580192 1.0627405353571 1.0552587548939 1.1547584008319 0.17771996395798 0.82055003261275 0.89302832891664 0.840582289911 1.6381803356924 0.95313227770391 0.95599882815055 1.1679881122537 1.1418765303214 0.46326911696975 0.85423236074012 0.59014485975686 0.8191267494264 0.58952994297038 0.63223628088498 0.74207944940385 0.68446000791312 0.66639110468972 0.51104607882891 0.80762658377596 0.33628347109821 0.56882256123464 0.63047808272937 0.65686091897334 1.129802703407 0.46998897270431 0.37201303240223 1.1598548110176 0.94214362084607 1.1341916442004 0.76752664355931 0.54014473652385 1.1013473970784 0.64400277896659 1.1956038655347 0.92886320369377 0.97884853941843 0.76770518896728 0.85241510288445 1.236607202015 0.60457493976219 1.1203696572691 0.64062224753352 1.1978116200752 0.77763606650035 0.89426247018319 0.5785407730406 1.2054167275687 0.56075284525099 1.1018173775564 1.0594914044554 0.60354999821824 0.89757442159457 1.1662759323004 1.0394647524885 0.9713360475718 0.64827032641317 0.65912170904861 0.94213828552416 1.1389381776755 0.68202064162548 1.2294781082341 0.64224776250959 0.51731097497551 0.6280636352782 0.47543083160907 1.0182921613555 0.93794876749884 1.1145315512261 0.75146342893529 0.86497997474172 0.75859268564489 0.81317261821339 1.1638331430959 0.77435530028929 1.2352609150425 1.1205381142232 0.63565862222563 0.68071241199864 1.2076127580056 0.63341968954672 0.71912055892424 1.1511731458847 0.85366709322519 0.89239951661372 0.6010042275037 0.70756211206265 1.10225413164 0.71730955134465 0.7029755683721 0.66299200760232 0.78168288677734 0.79560666107662 0.80810536938589 0.61774606793208 1.1655772258879 0.6428189722759 1.0268183569552 0.6741079457471 0.88773297322824 0.55137692802506 0.56582292928741 1.1225368538582 1.0465117414896 1.2233133326203 0.91414216542124 1.0027182751952 0.75553799617853 0.81160411724502 0.67005885779954 0.84860323574165 1.1180155063517 0.6013609692767 1.2012806585995 0.99815685860336 0.5912596520827 0.90575129060984 1.3743834069049 0.98964325980587 0.70939686152791 1.020038733909 1.5950237681502 1.0286684575698 0.55240130359962 0.52550775313286 1.3605887542135 0.98769126363457 1.092021363265 0.55529179622738 1.1195575732896 0.60266464722153 0.63209910834846 0.65423070109814 0.50565362168289 0.46783523297576 0.54949180976466 0.58157206023238 0.53690150832763 0.66034535958484 0.60061344981336 0.52327116429125 0.39124486970903 -0.17043841303022 -0.046641719750293 0.83856905331033 0.55576801902337 0.61800078006879 0.47993486481344 0.60218694999662 0.47452574393295 0.77728877680597 0.65252934041046 0.64092543540181 1.0260294413744 0.79208657696456 1.1903548959543 1.2359516173165 0.63495814966512 0.78104299850452 0.54644451837159 0.99287046143045 0.98079157938571 1.1242281694972 0.52606987239815 0.72681781238244 1.2024623677761 0.93507874647532 1.0418490316569 0.75626364448576 0.90780042779667 0.81399025040793 0.58019212971281 0.80389062109686 0.96026824144515 0.79374882038196 0.68462880244511 0.65552441181411 0.64221763138229 0.46325464979445 0.68479627297426 0.65788637860416 0.77155710446271 0.47885121602467 0.49289428845597 0.56605433720981 0.42227574675417 0.79796092950667 0.52901825662759 0.55767468929223 0.45333465173373 0.56589729767852 0.78905319708659 0.86611341289714 0.42643643710755 0.64342395217802 0.55360515441015 1.0232530555095 0.87470516255936 0.47365415389521 0.82058186492756 0.776630619392 0.70242716553659 0.64515618789859 0.51005203336846 0.70238211456346 0.8377812781799 0.24949304609436 0.5453015071628 0.82675341614953 0.75755100280695 0.67473734800608 0.84536623794317 0.52830662460583 0.93020244122328 0.71392703508995 0.70756058983351 0.87076727144273 0.85335412936471 0.8282811025184 0.58849908664965 0.50870826360059 0.90558504915837 0.5781729434837 1.0060069777136 0.7927369633713 0.43260706901393 0.86232011591101 0.71480616069961 0.67112428005851 0.6003880074959 0.69656698645769 0.71369762587051 0.69765075122994 0.041822079415558 0.55475184867994 0.44682282007644 0.42433255880363 -0.36825324264403 0.65160049597707 0.45632671155227 0.50540276812438 0.6129771695181 0.82488883276852 0.7076133073077 0.50993543431242 0.91522155662752 0.4921824759462 0.46762317185421 0.83717531847328 0.50519270249722 0.67178783285383 0.83079184586361 0.60409042345808 0.63512780606497 0.5259301091762 0.67867414466361 0.59170296263972 0.71493387826363 0.69543516365083 0.72189773861605 0.54034135887509 0.68195674869517 0.67154183129254 0.73481030050595 0.53893137116992 0.66895240079665 0.79929051129073 0.84444797369572 0.57262010484681 0.60267463925097 0.95388550671123 1.1961334702793 1.0406438500128 0.72214694559789 0.62434362938721 0.44255997736275 0.53118980724808 0.66495888726477 1.1090292458255 0.84407038729954 0.57458474047986 0.53911941721221 0.54225072773206 0.56363996546261 -0.099795110189769 0.61455518853836 0.41923996608015 0.51867098101193 0.77505911854276 1.0365168993481 0.60843648981471 0.85420116479723 0.49741823652509 0.57409892263464 0.53103185020385 0.83963285211373 0.57969876263052 0.88197027946689 0.50025339932914 0.50198506998186 0.59845916972919 0.70781294458309 0.87645579545094 0.5390071461888 0.69675212476255 0.58303012026473 0.5319690550215 0.85633560322743 0.86119504384944 0.71486529790046 0.63696984376774 0.4793324132805 0.3555106172203 0.45454472078459 0.32024159583492 0.4741802900295 0.53835845826001 0.50520914510015 0.57848427176639 0.6776413326981 0.50009871714102 0.52998114609201 0.40887249104312 0.53238323220326 0.72784431383555 0.6166054602704 0.9128147171428 0.61012134596863 0.58442486933996 0.6782289579483 0.50823327011511 0.80043568454155 0.63743257833091 0.58205123788672 0.41839309906152 0.53946164696841 0.43724166693647 0.3818982105546 0.43134000064081 0.52876779810913 0.36483929062345 0.44473938881377 0.3179412957282 0.40427815781751 0.33786077604208 0.18530415464008 0.3340867372283 0.53161539044076 0.70362001174215 0.45073632198043 -0.045067255562212 0.56855601531068 0.71209927891807 0.75756878558268 0.55712939404511 0.59155918009557 0.50841914319239 0.67721891950277 0.56218068825436 0.93293587721366 0.52847963109462 0.55127028472965 0.61671573055195 1.0531832296781 1.205236233503 0.55915316676067 0.68524980440482 0.61101251829793 0.7311740153622 0.62625377173203 0.50192563566283 0.49154308062217 0.61892453833556 0.68687390617952 0.54028175792985 0.62436141977232 0.68027025869778 0.72023321433956 0.55447417211687 0.93062838245558 0.508101862573 0.64127624991542 0.82462845168565 0.55939254020507 0.65130450103534 0.58409055260167 0.63601234534753 0.67194723697073 0.69436351176864 0.55675244825789 0.64198007640305 0.60362869197411 0.5918150003887 0.59236959901654 0.54329574853188 0.44355520419625 0.64796830233838 0.83998255047092 0.54971515007673 0.64762820897388 0.62107519860864 0.49826834159635 0.49138879758992 0.49558326840297 0.48054088990189 0.31672978799263 0.30195777327644 0.39299128883828 0.6056176331813 0.36789013249125 0.40775418299421 0.49171363397995 0.56513925955685 0.47417507557495 0.5310637126032 0.45249182124919 0.53283523823897 0.44579328226395 0.47447204521095 0.46590419986113 0.32212076167314 0.40896490412949 0.46729197347876 0.56088303432349 0.63964385094434 0.33514034997252 0.78369133988715 0.70804067996511 0.53727419335291 0.60009278426773 0.42766171416859 0.61019897888727 0.55426200588189 0.43956190151865 0.43865866797796 0.34779328374752 0.32678973521552 0.39567771440112 0.45689468475171 0.66217926208831 0.57155332568604 0.50401638984055 0.65037087449769 0.28571299557597 0.37097880995972 0.30068980344424 0.19798932010659 0.49855292103257 0.27229377346763 0.34747968190335 0.19368024788532 0.66911469787081 0.28520903071209 0.076352299624739 0.19332657812232 0.21619783220988 0.20992425268712 -0.12100651053021 0.30725341029951 -0.028915731097086 0.27327738686024 0.25578278080872 0.2744293612812 0.42471091745566 0.40570566716114 0.21429163849978 0.36644593164193 0.025524172012623 -0.089093630485263 0.082110485788811 0.27842738014375 0.29872378118802 0.61721469714293 0.57841172479006 0.67006328405238 0.56810166755228 0.72192477845008 0.70849936262871 0.54055483366643 0.57476365092928 0.57764495270525 0.51577574430877 0.5675171396765 0.50272616839246 0.50642577237409 0.46431103214724 0.42176279589808 0.57232758752636 0.49681727455592 0.47492726163945 0.21093934718048 0.54395670549614 0.66580795267259 0.52116737003204 0.5083749635429 0.33918297254838 0.35358943257819 0.36184764208814 0.32378739269642 0.36651844821235 0.43983401368855 0.39642473654095 0.32197847991537 0.32748878749454 0.48878431236487 0.38867940490472 0.35645774994042 0.39223383731611 0.38849003915908 0.42383893571897 0.43059839381967 0.37483063024229 0.28108258256675 0.31325622659449 0.23540790911965 0.32003339360778 0.33284036325106 0.46197977140915 0.39688178736548 0.44897604172828 0.22860869957165 0.25788609105437 0.31929757442701 0.23962366927082 0.23276206809637 0.51781947968345 0.68834089050572 0.58972418548591 0.20007164065571 0.59482552543663 0.62187858168404 0.47986227142397 0.14254444095945 0.43045609070021 0.45019655467736 0.56957236599333 0.18002993034862 0.42407529749093 0.42644405487483 0.1711758863057 0.23662602514876 0.28928634998069 0.26317855535324 0.28361401320243 0.0084806891640277 0.45989534221064 0.46528456234113 0.61864075964814 0.46195623337135 0.50734104709311 0.49592073035506 0.61929988775264 0.31603972619734 0.42460030192862 0.39411981729494 0.43195080251915 0.24147611976778 0.47252383501785 0.55541841786576 0.39668490505812 0.33871101763322 0.47023983050524 0.28987829532477 0.30861094313296 0.27543158815409 0.30528996694398 0.27774610862522 0.2322924985074 0.20789762145141 0.23406030177094 0.051513220015909 0.22850749141633 0.22688928608518 0.229308285972 -0.51999984035704 0.15118698829026 0.12671983701235 0.2208755507076 0.17944567499744 0.20917446999321 0.1953422690399 -0.12982685866203 -0.26048723036103 0.14765238198577 0.18362484996657 0.15918414482293 0.23087075882244 -0.1201277585194 -0.12377305774959 0.2382359255002 0.12994415101293 0.11173510247589 0.17103838727193 0.14490764459065 0.25902185343403 0.12740028953486 0.1647107034379 0.13137631247673 0.018559538265093 0.11519199016614 0.24640763250043 -0.12055767641168 0.0051412020786526 0.037613484848669 0.052101089441656 -0.18503996126631 0.025081800065586 0.11680699714779 0.25472499450449 -0.043766958362761 -0.1124759925253 -0.21177254160585 -0.39251130633828 -0.087662219872129 -0.23067109786064 -0.080118023956148 -0.25199246556878 -0.12437590882806 -0.13666955773885 -0.21885687318413 -0.18607374338866 -0.35068352239432 -0.34141939756839 -0.33362263888438 -0.19920490758438 -0.55800274242898 -0.24476462269359 -0.030333883983712 -0.30641468613473 1.0054004835955 -0.20813461550929 -0.32604682539463 -0.35247745902743 0.098107598669256 0.23661256369106 -0.19288751836386 0.51272458014651 -0.16620199874861 0.51617913533284 0.48188577193824 0.44404677879833 0.49366094403401 0.5027863468211 0.26928120713734 0.44509251675265 0.53710642843803 0.34495833781754 0.42211461153849 0.4042186305367 0.50733971315751 0.29245927985636 0.30969832266142 0.30628385462911 0.33588717703364 -0.0069032968794678 0.045554833841183 -0.22588436871791 0.61281235881273 0.36301621965068 0.