# vtk DataFile Version 3.0
d-2__ created by libgimli-v1.5.0-1-g5991b6ac
ASCII
DATASET UNSTRUCTURED_GRID
POINTS 3056 double
16.047984885364	9.2005108665658	0
16.227640130622	9.31797770521	0
16.052808675398	9.4151062914457	0
9.6856707273838	12.779965388042	0
9.5840448320983	13.008863982168	0
9.459889155087	12.888340064957	0
9.4017034496321	12.989518397958	0
9.4966291044861	13.057428275285	0
9.409213376874	13.105992568403	0
6.9615730037337	14.465792775704	0
6.8666473488796	14.397882898376	0
6.9945996683525	14.319328169198	0
10.283370652996	12.620349637225	0
9.9337077425469	12.814606809696	0
10.035333637832	12.585708215571	0
10.370786380608	12.571785344107	0
10.246630703596	12.451261426896	0
3.2	14.888006064741	0
3.3935321886838	14.815842352641	0
3.3	15	0
10.363276453366	12.455311173661	0
3.05	14.894536113346	0
2.95	14.834347813918	0
3.0997032337695	14.698789777549	0
22.54986393823	5.4610590293129	0
22.601478319067	5.6563101371606	0
22.484832569298	5.6522603903955	0
7.8357302798552	13.980149844525	0
7.7483145522431	14.028714137643	0
7.7115746028439	13.859625927314	0
8.7098875559768	13.494506913346	0
8.6224718283646	13.543071206464	0
8.5857318789655	13.373982996136	0
21.698091020789	6.0893390284563	0
21.734830970188	6.2584272387846	0
21.639905315334	6.1905173614571	0
4.9002967662305	14.698789777549	0
5.05	14.834347813918	0
4.95	14.894536113346	0
8.5275461735105	13.475161329137	0
8.5350561007525	13.591635499582	0
23.708017310135	5.0679061559452	0
23.57570494199	5.2584272387846	0
23.492391392804	5.1534065041647	0
7.9373561751407	13.751251250399	0
5	15	0
4.9	15	0
25.208739718026	4.888006064741	0
25.308739718026	5	0
25.108739718026	5	0
6.7500015991102	14.393833151611	0
6.8150329680421	14.202631790528	0
7.6608988246309	14.077278430761	0
7.653388897389	13.960804260315	0
12.90584248136	11.163420843689	0
12.869102531961	10.99433263336	0
12.993258208972	11.114856550571	0
14.304494123155	10.386392153803	0
14.40612001844	10.157493559677	0
14.654157033603	10.192134981332	0
11.237433729487	11.969668242483	0
11.18581934865	11.774417134635	0
11.36538604896	11.891113513304	0
11.120787979718	11.965618495718	0
11.885664010266	11.385614544848	0
12.082360983452	11.431411271421	0
12.024175277997	11.532589604422	0
13.080673936584	11.066292257453	0
12.98574828173	10.998382380126	0
13.867415485094	10.629213619392	0
13.77248983024	10.561303742065	0
13.830675535695	10.460125409064	0
10.909490913954	12.100065284392	0
10.844762499738	11.765076855645	0
12.934133900893	10.803131272278	0
3.6	14.810067208388	0
3.7	15	0
3.5	15	0
12.657805466197	11.128779422035	0
12.556179570912	11.35767801616	0
11.244943656729	12.086142412928	0
11.157527929117	12.134706706046	0
1.3	15	0
1.2	14.888006064741	0
1.4	14.810067208388	0
1.9	15	0
1.5	15	0
1.7	14.849260526121	0
12.119100932851	11.60049948175	0
2	15	0
2.05	14.894536113346	0
2.1	15	0
12.031685205239	11.649063774867	0
1.0997032337695	14.698789777549	0
1.05	14.894536113346	0
0.95	14.834347813918	0
11.332359384341	12.03757811981	0
5.7	14.849260526121	0
5.5	15	0
5.503868896942	14.598288840263	0
4.064468339761	12.492321883392	0
3.9817116885018	12.918420923089	0
3.7670358212135	12.67328000924	0
13.779999757482	10.67777791251	0
25.602637769837	4.524993056905	0
25.708739718026	4.8492605261212	0
25.458739718026	4.8343478139176	0
14.734062833973	10.027096517768	0
14.682448453136	9.8318454099206	0
14.862015153446	9.9485417885899	0
-0.24940646753892	14.834347813918	0
0.05	14.834347813918	0
0	15	0
15.804771660235	9.3804648697915	0
15.703145764949	9.6093634639172	0
15.578990087938	9.4888395467067	0
29.767533861964	4.3398980943704	0
29.508442951795	4.548348532907	0
29.495546029131	4.1485808085627	0
0.1	15	0
0.3	14.849260526121	0
27.458739718026	4.8945361133462	0
27.358739718026	4.8343478139176	0
27.508442951795	4.6987897775495	0
0.5	15	0
16.678928936356	8.8948219386129	0
16.4287009421	8.6628888321103	0
17.028591846805	8.7005647661415	0
1.1	15	0
1.95	14.834347813918	0
20.105956534257	6.4151422964054	0
20.247470662652	6.669867727517	0
19.925330046586	6.7203171073957	0
21.501394047603	6.0435423018831	0
24.087916739041	4.9470663132613	0
23.750549209437	4.5440302871062	0
2.3	15	0
2.2	14.888006064741	0
2.4	14.810067208388	0
26.308739718026	5	0
26.358739718026	4.8343478139176	0
26.408739718026	5	0
25.008739718026	4.8100672083876	0
24.908739718026	5	0
3	15	0
2.9	15	0
1	15	0
21.472583787351	6.4041201181382	0
21.297752332127	6.5012487043739	0
21.301387084399	6.2885606170178	0
19.199774869435	7.6667917392027	0
19.112359141823	7.7153560323205	0
19.104849214581	7.5988818618751	0
6.1791038580454	14.704649136022	0
6.0874157276122	14.951435706882	0
5.95	14.834347813918	0
6.8741572761215	14.514357068821	0
6.7867415485094	14.562921361939	0
16.402471585846	9.2208491189743	0
16.260666795241	9.171513098704	0
16.394961658604	9.1043749485289	0
6	15	0
28.922845333402	4.5823118347521	0
28.708739718026	4.8492605261212	0
28.602637769837	4.524993056905	0
4	15	0
3.95	14.894536113346	0
4.05	14.834347813918	0
28.108739718026	5	0
28.208739718026	4.888006064741	0
28.308739718026	5	0
7.136404458958	14.368664189468	0
7.1315806689246	14.154068764588	0
7.3112359141823	14.271535603232	0
23.945942620228	5.1435706882137	0
23.403806383266	4.93902940218	0
3.9	15	0
4.1	15	0
27.608739718026	4.888006064741	0
27.80227190671	4.8158423526409	0
27.708739718026	5	0
17.36404458958	8.6866418946778	0
17.356534662338	8.5701677242324	0
17.451460317192	8.6380776015599	0
5.3	14.849260526121	0
5.1	15	0
14.617417084204	10.023046771003	0
5.9	15	0
6.5387045333462	14.528279940285	0
14.998996154018	9.7832823839802	0
15.178651399276	9.9007492226244	0
15.003819944052	9.9978778088601	0
4.3	14.849260526121	0
27.508739718026	5	0
16.453147364059	9.0031966155281	0
16.256450390874	8.9573998889549	0
22.871235429146	5.6270914282524	0
22.72943063854	5.5777554079822	0
22.866411639112	5.4124960033725	0
21.122920876903	6.5983772906097	0
20.948089421678	6.6955058768454	0
20.981116086297	6.5490412703394	0
1.8827233936571	13.413209492963	0
1.635985724768	13.057931042977	0
2.0585343714792	13.116469985366	0
13.63397856251	10.414328682491	0
24.321832839145	4.8833962425865	0
24.408739718026	5	0
24.316180298466	5.0287141376427	0
24.708739718026	4.8492605261212	0
24.508739718026	5	0
24.458739718026	4.8343478139176	0
23.483145522431	5.2871413764274	0
9.2631921819019	12.842543338384	0
25.358739718026	4.8945361133462	0
25.408739718026	5	0
25.508739718026	5	0
12.206516660463	11.551935188632	0
3.1	15	0
12.308142555748	11.323036594506	0
24.679068235604	4.239790780138	0
25.006267059794	4.3425605622482	0
24.599747236054	4.5734506034563	0
22.521572518697	5.8213486007239	0
22.608988246309	5.772784307606	0
11.502367049532	11.725854108695	0
11.68202229479	11.843320947339	0
11.507190839566	11.940449533575	0
10.491228772839	12.376756444483	0
10.633033563444	12.426092464753	0
10.45820210822	12.523221050989	0
22.696403973921	5.7242200144881	0
23.395729794819	5.3357056695452	0
23.358989845419	5.1666174592169	0
2.8061019481889	14.524993056905	0
2.7	14.849260526121	0
26.108739718026	4.8492605261212	0
25.908739718026	5	0
0.9	15	0
26.458739718026	4.8945361133462	0
27.308739718026	5	0
27.408739718026	5	0
29.358739718026	4.8343478139176	0
29.408739718026	5	0
29.308739718026	5	0
26.508739718026	5	0
27.108739718026	4.8492605261212	0
27.214841666215	4.524993056905	0
28.408739718026	5	0
28.358739718026	4.8945361133462	0
28.458739718026	4.8343478139176	0
28.508739718026	5	0
21.923872593085	5.9809643515411	0
21.8222466978	6.2098629456668	0
26.708739718026	5	0
26.608739718026	4.888006064741	0
26.808739718026	4.8100672083876	0
28.908739718026	5	0
29.108739718026	4.8492605261212	0
14.056457107991	10.351750732149	0
13.954831212706	10.580649326274	0
29.658146185565	4.8343478139176	0
19.54461398985	7.2579391418513	0
19.724269235108	7.3754059804955	0
19.549437779884	7.4725345667312	0
21.647415242576	6.3069915319025	0
13.250681601775	10.754568246337	0
13.430336847033	10.872035084982	0
13.255505391809	10.969163671217	0
9.2674085862685	13.056656548133	0
16.489887313458	9.1722848258564	0
16.577303041071	9.1237205327386	0
17.626291772416	8.5409490153242	0
17.484486981811	8.491612995054	0
17.621467982383	8.3263535904443	0
21.284504402929	5.7190625713937	0
21.673644598829	5.7490312450385	0
17.276628861968	8.7352061877956	0
16.926965951519	8.9294633602671	0
17.239888912569	8.5661179774673	0
18.11404618869	8.0804750462887	0
17.902749122926	8.2149218349628	0
17.83802070871	7.8799334062158	0
18.238201865702	8.2009989634992	0
18.150786138089	8.249563256617	0
8.5612854570062	13.033675212718	0
9.0547266763919	13.085654315995	0
8.8115134512622	13.265608319221	0
14.741572761215	10.143570688214	0
9.2343819216497	13.203121154639	0
9.0595504664254	13.300249740875	0
9.4354427331278	12.548032281539	0
9.6630878033521	12.327490919146	0
15.615730037337	9.657927757035	0
15.520804382483	9.5900178797075	0
9.9706052236163	12.250719786823	0
14.828988488828	10.095006395096	0
15.528314309725	9.7064920501529	0
19.986516417945	7.2297131011419	0
19.949776468545	7.0606248908135	0
20.073932145557	7.181148808024	0
20.175558040842	6.9522502138984	0
25.309036484257	4.6987897775495	0
20.860673694066	6.7440701699633	0
20.853163766824	6.6275959995179	0
22.273535503534	5.7867071790697	0
22.208807089318	5.4517187503226	0
3.1317176073544	14.309812537406	0
20.736518017055	6.6235462527528	0
19.891590763091	7.1618032238144	0
19.899100690332	7.2782773942597	0
28.008739718026	4.8100672083876	0
27.908739718026	5	0
18.23069193846	8.0845247930538	0
28.309036484257	4.6987897775495	0
27.895939159663	4.4709363375124	0
28.265207298324	4.2898533340251	0
18.988203464812	7.59483211511	0
23.147692779655	5.301064247891	0
23.04606688437	5.5299628420167	0
19.024943414211	7.7639203254384	0
20.773257966454	6.7926344630811	0
20.423595056005	6.9868916355526	0
20.525220951291	6.7579930414269	0
18.325617593314	8.1524346703813	0
22.171909608248	6.0156057731953	0
18.358644257932	8.0059700638753	0
18.500449048538	8.0553060841456	0
13.113700601203	10.919827650947	0
18.179077557622	7.889273685206	0
[...]
CELL_DATA 5825
SCALARS Coverage double 1
LOOKUP_TABLE default
2.2420853367316 2.2853458799908 2.8711511956487 2.3263631243897 2.2879353616373 2.8613846078719 2.1018695243176 2.3127224106211 1.8170225273123 1.8706045297756 2.7801414257241 2.8134896916186 2.2949237649326 1.856166721125 2.8498649910638 2.3023559537968 2.2376968342957 2.8160140451542 2.3934232552323 2.415853681926 2.2150516629458 1.8747445086143 2.8175762987679 2.8962050764696 2.3206829687084 2.1983452087063 1.9920501771471 2.0029143881709 2.9255308737132 2.4262222329253 2.095476964985 2.3737258751532 2.0106919697725 2.0711189104276 2.3132281588658 2.8687542957679 2.0004164870111 2.0981598624462 2.4155212113246 2.7387780054581 2.9049323701412 1.5944267667385 2.8980408489619 2.350405872817 1.993797513527 0.81463327363716 2.9397613758205 1.9278307658416 2.2561011298175 1.5035083843549 2.3375646294945 0.76912688903704 2.2045397205305 1.7693696800284 1.6805196926604 1.7916587528869 2.1030964002462 2.1594071489118 2.7253581785593 1.7595772314443 1.8818839761151 1.9324071247543 2.0691257972349 2.691172127569 2.0583599012901 2.7625670637752 2.1329162607398 2.6945374090669 2.1433684146832 2.0084260511541 2.8803369549156 2.0668974259653 2.7858783372214 2.4382144536399 2.5005719386585 1.5937837742465 2.2392410390788 2.224263796824 2.1324090936689 2.144790323553 2.2184572948282 2.0747585880108 2.8011031552876 2.7582939994201 1.9794729980557 2.9116964942188 2.1786201544997 2.0137121903018 2.5421212878037 2.2396897181494 2.2448213177495 2.1922951241256 2.1593574006328 1.9881091145972 2.1431326272483 2.3572428118028 2.324208720649 0.79203475973098 2.0158217013231 2.847938621152 2.2361290042192 2.8759900496376 1.9758048159832 2.7352241602845 2.7155994318043 2.8759102742257 2.1306301878411 2.7812600321268 2.3215810876445 1.5066842448967 2.8031951143827 2.2264109525363 2.8351280272761 2.3855768565978 2.8353861949923 2.8457516771216 1.9754026644641 2.3145149639202 1.9248201466821 2.078792909884 2.1691260037394 2.6733606583653 2.1870588129006 2.6745030072721 2.222729748278 2.7239607371966 2.1687213384489 2.2508546995711 2.7333094529024 2.2152069441701 1.7992319461324 2.1645211240966 2.6835723097541 2.2439494350929 2.0235136700084 1.8153460031811 2.3497052775764 1.5576495515764 2.697670606756 2.0547647470961 2.8152308254266 2.1706609368756 2.7771847219948 2.8426860410421 2.2428246723543 2.4142098909572 2.8845449212808 2.3313510131177 2.2501168724319 1.6904441823188 2.2987935247947 2.8796704250123 2.9105626311803 2.0361726433438 2.8609497719958 2.0451464833574 2.8996926704074 2.4509625909074 2.2107250158903 1.8888961038015 2.3795891529682 2.0982062997974 2.9355018869819 2.2955650469653 2.8842833238412 2.9136629154289 2.8069519235826 2.2649475282865 2.4161497099688 2.836123252992 2.8390976710124 2.2849961470729 1.7645786508091 2.8876712818038 2.852083577125 2.2725775313686 1.9653208435963 1.6209001791635 2.357980696528 2.8722693189122 2.0861111754621 1.9308980024244 2.3379201851331 2.4214531184105 1.3856997694191 2.1559165112708 2.3918209528854 2.1973472043657 2.8473885628126 2.3042458787874 2.2319956585028 2.8963452265771 2.9153940423734 2.3826533994843 2.1950954752749 2.3790764151864 2.8179375888644 2.2207462148577 1.9678477050968 2.2626076809499 2.230308609487 1.9828927963915 2.2477067053489 2.3629858740826 2.2016301766508 2.3889069805886 2.4223267270099 1.7573056754257 2.2171203371637 2.2516814786966 2.2674799105412 2.2802722271372 2.0946346777275 1.7344393603102 2.1899560952772 2.3190625914112 2.368281059316 1.9798540601996 2.3975660530506 2.4207584817378 2.4598403434398 2.4138935057432 2.4470535834101 2.2128416282114 2.3462248537426 1.9508035168566 2.3614341849869 1.9602586129368 2.104111167008 2.2973314685672 1.845980535145 1.7545475406522 2.1793690803401 1.9515967836454 1.94981206146 2.2406346666447 1.8818798096573 2.0030207317698 1.5548478234572 2.0790500168704 1.4891045085041 1.9953290453222 1.8878506608802 2.2998772919781 2.168485449172 1.7487663571793 1.9149050186713 2.1726579333214 1.9271772201884 2.3989411000854 1.84457084374 1.9522546333357 2.1834744443118 2.1519816080519 2.3184555022498 1.9510148230725 2.0259848221657 2.0592509822939 2.2836456284806 2.1904248765553 2.1954063238682 1.9224023549796 2.1538681914719 2.1589398161787 2.3608799219513 2.3163573505302 1.8335980040379 2.3775177892404 2.1482273168046 1.8513077505826 1.9101889352138 2.3086101729287 1.5287406760441 2.0318031205435 2.1689582645018 1.4733059371143 2.2366757322891 1.4640463075812 1.8332079367451 2.165674720813 1.5819536516283 1.9878161349133 2.4068603641162 1.8242390208697 1.9073580857208 2.1431841290405 2.0610810492335 2.2838749451529 1.9450135899402 2.1364927095524 2.3251614797851 2.2252222089393 2.2457590315598 2.2379501581917 2.439333082608 2.4029243012766 2.0611167023295 2.1624598395019 2.2735021075927 2.2371837932795 2.4376062430963 2.4026510425759 2.2674830497847 2.2491226436496 2.4594366101406 2.4245036960589 1.7451104894994 2.3538596505081 2.0189137896373 2.3832225624037 1.7773506752091 1.7547472520146 2.0343794716216 2.1496375223504 2.2480844249728 1.8560937802734 2.1729578774987 2.0619854427892 2.1047828656257 1.8902520336755 2.2853455316355 1.8933130648678 2.2371341774033 1.9653829818646 2.3447106213919 1.9850366499015 1.9571072894765 1.755331902856 2.2145244678333 1.8263332404704 2.2390176822722 2.2032662992028 2.3094993134408 2.089836168906 2.1579123856346 2.0873066110939 1.8288907086614 2.0397197681042 2.4197488041478 2.0549309425871 2.4341652532565 2.085142973809 2.4136294525817 1.9233532003421 1.8110820462626 1.7858108664608 2.0113676406203 1.8215777001691 2.0942911668769 1.9377124474876 1.8937761270122 2.113893445395 2.0869545619523 1.9386551037727 2.1705553423835 2.1987140141598 2.1915923668906 2.0118119623829 2.4040482564693 1.8696460725188 2.1940504617146 2.2506646493912 1.8918365348733 1.8042815417848 2.0849763792595 1.9714494624779 1.9798221544699 1.5916863573921 1.9898293517212 2.2715369010743 2.1341167306394 2.1878349530176 2.0997378374229 2.0059011290483 1.808731361103 2.2987086503106 2.2985257529717 0.66808458954756 2.2034419392347 0.99800072570948 2.3263211307323 2.2501701203329 2.0638456232809 1.8530406470633 2.2319394517468 1.9713633675706 2.0489380638182 1.7756134193876 2.1165452096184 2.0103220138318 1.9967395890344 2.2222061097483 2.2220081620197 1.8826342365838 2.2416752001093 1.8782941709285 1.9836228569542 2.1201511046122 2.1150322593991 1.9249878147741 2.2633633876578 2.216818037308 2.2002487871343 2.1764595736899 2.2298881069748 1.9017755745752 2.3253196043999 2.1779307301821 2.026273333165 1.2871643148587 2.0773282151824 1.7826602714058 1.72370336126 2.1267588120615 2.0630730242384 1.7971250771961 2.0996652900423 2.038724577474 1.9930417219619 1.7158557404019 2.1057153427391 1.9768582331555 1.7443474650035 1.4559188720644 1.7771831711108 1.7897655082905 1.7720599723045 1.9185532987309 2.3173445098319 2.190807655585 2.0967134518241 1.9330350142173 2.3438107023299 2.1564341989839 2.0780319976462 1.8150036471682 1.7844719770667 2.2208464832247 2.0825261941088 2.0039104386797 1.9439797976051 1.7996518620328 2.3414592609409 2.1780391962919 2.108099136294 1.8558149910666 2.2508496700715 2.1020934671145 2.0427309889584 1.2047892112384 1.2266873947713 1.5082566633197 1.2650782156743 2.1811204731911 2.0599741121033 1.8991516730524 2.1698894153781 2.0131338825109 2.1177122327345 1.9736829939605 2.0090118107494 1.9395106122395 2.1671467005807 2.0796621814308 1.907760637809 2.2044865165862 1.9762005755644 2.150536489401 2.2646596064258 2.1474088424342 1.9830454806915 2.2337946255927 2.0634758930821 2.1756448928277 2.0705804173828 1.9610729856228 2.0053711719598 2.2598427776457 2.1807263147845 2.0165130320146 2.2154516326052 2.0696520662499 2.1626738656645 2.2775179549774 2.1629197689026 1.9960022275821 2.2418922585416 2.0637238464226 2.1736098041616 2.219665359957 2.0055508881201 2.1560419197181 1.9559513201398 1.8379247315969 1.6197971914236 2.0731986404092 2.0730434902052 2.0009871822878 2.0186877084021 1.9910662287775 1.8284142872178 2.0157744010001 1.9267552073236 1.708707052482 2.0688627674382 2.0371950680925 1.8265154670137 1.910389839031 1.9373477640315 1.8183937751404 1.873004490197 1.8890183217188 1.7068218130735 1.9517458161445 1.9341607419121 1.7288591861068 2.2125220287083 2.0999811262529 2.1552191047011 2.119364138155 1.9761191368413 2.0629751422782 2.1502026514202 2.1369392856128 1.9372234480441 2.1729973276301 2.1490229516394 1.9481430385109 2.1950416537411 2.1382460693675 1.9262381733788 2.1575928017542 2.1822286612833 2.0900264871542 2.1240117741355 2.1271588087772 1.9582651697941 1.8111108334768 1.8868963903016 1.9575032982829 1.8532323269706 1.6980654944278 1.555918635933 1.8315775365938 1.6288266262655 1.5009404128738 0.74826848616119 1.9360632207205 1.8736184967068 1.6985219901501 1.3453281147283 1.5671967743093 1.6898156768095 1.7988999521753 1.9035380713219 1.6190548922771 1.708172029368 2.0595683014341 1.5559520664036 1.961546801235 1.304683006443 1.1176960866038 1.7587783405517 1.6593658072225 0.55419581074204 1.7763128029675 1.7182313838205 1.8064231533974 1.6527509144755 1.7238407206683 1.634127082857 1.6033734843759 1.6419181641862 1.6439698044065 1.0920473922442 1.7505791060303 1.8594048625129 1.3680951563061 1.7854971629447 1.8056925424365 1.8018690040038 1.6181882926463 1.7977602118971 1.8889601586071 1.7920714624313 1.537626949845 1.7862632266912 2.0058575880988 1.7802945145202 1.8105117169512 1.9942600249717 1.9216720751349 1.6798195429549 1.4903899933016 1.7008699081319 1.5230553930928 1.4546867813941 1.6238174935584 1.7984384888402 1.4540411995922 1.6002039114071 1.4450506222162 1.5660921596953 1.4411247110401 1.3198618663362 1.0106626785329 1.2398110712806 1.394071252014 1.2033095498362 1.5834609432364 1.5502191509979 1.7553740307503 1.4195272582262 1.7190461527035 1.6996757843446 1.5457044037588 1.7077396157682 0.56569056666579 1.0946679432055 1.3739952148455 1.1259322306167 1.1898644915968 1.5665985108856 1.5184358805813 1.2075666985596 0.53261465194555 0.96012296098734 0.4485759036291 0.57889774746536 1.7317444489467 1.7715795629292 1.6450624254228 1.5798504220157 1.6509904003367 1.6119028922602 1.3048255801218 1.0648549393917 1.474877392038 1.8427348641873 1.2066686705034 1.8889697901582 1.3424431407651 1.2857736561742 1.7887740644511 1.5749158026689 1.4148114577031 1.5292496144642 1.3384496158679 1.5741722530349 1.7157605283091 1.4877921538331 1.4444633976058 1.3001019890748 1.7755251481916 1.5653957421823 1.4907524881974 0.96068598977637 1.800273311308 1.6224288964694 1.629485533546 1.4286499723464 1.7867637892588 1.5799995415833 1.2656329547109 1.3817240145033 1.4185307744661 1.5843203196789 1.2673511195465 1.1992854220424 1.518442486394 1.0819065274224 0.8965168970342 1.0152915308462 1.7209554006299 1.4802632353518 1.7273882853778 1.5469435159838 1.7591678036745 1.4009653078665 1.7165473340587 1.2759342933815 1.5029694914424 1.2983784457227 1.1826059791131 1.5307478234882 1.018576510323 0.4551205038158 0.9326496126776 1.0158732453861 1.3650806121493 0.98022913381569 0.60581324558559 1.266415919459 1.2089914901471 0.19583454097381 1.5379376875272 1.1811981914352 1.3290640718851 1.1906512479724 1.5205828451581 1.3848328234558 1.5969152354208 1.4425330822859 1.2545814155205 1.1493513217727 1.567367822588 1.3002510463577 1.6328985354719 1.3466023907844 1.3743314604078 1.4435310932692 1.636604430564 1.3754774791542 0.89115548201495 1.3555141658402 1.4101962682965 1.4440988526212 1.0481960222588 1.4027436764952 0.9575476978312 1.0051492434426 1.1048804605238 0.63779807162269 1.3623378640401 1.1716728446211 0.95149164750282 0.87504826532704 1.4946567418073 1.4348471393598 1.3237002389601 1.2843317296331 1.5134387372113 1.1591539325973 1.5697412606409 1.3043754313803 1.4236717264478 1.2416903029369 1.6153692028099 1.3116727133688 1.644401954538 1.3512665386296 1.3537251262577 1.4733619104002 1.6522340087404 1.3405547563758 1.3445649774752 1.4655785325468 1.2657075487474 1.0677032732199 1.3649292266665 1.3615771026299 1.3747064432467 1.2838245949852 1.3075481868276 1.6128295177802 1.5671313452398 1.2935261024945 1.3021083114921 1.4224480397606 1.8292214369393 1.5776210632676 1.2417246254961 1.3005249658428 2.0059103499872 1.6358231170424 1.3651174192963 1.28488983165 2.0170852479804 1.6222254278966 1.32463299059 1.2597723086136 0.93569619332474 0.9109860128679 0.94120736266014 1.2907543303551 0.679435451347 1.2136611191849 0.91690775175981 1.2772275299702 0.86828978319222 1.9125791537354 1.5848474315294 1.1864681770769 1.204145079784 1.8095455298613 1.5573483220572 2.0147789493081 1.8127111426291 2.0033158100654 1.8274681270084 0.74686531916132 1.1763338914765 1.3008954643813 1.1386072686506 1.0642921703993 1.1545744672969 1.2619743422432 1.4971688776442 1.173878427862 1.2701409967868 0.89819390929093 1.0741347212797 1.9445459978363 1.7279239185626 1.5543155738 1.2408637011188 1.1114011800592 1.2071936339735 1.0025321954316 0.27355638293404 0.73929625772572 0.63028696091546 0.85761695793703 0.59505721856615 1.7242220555551 1.6624141972473 1.3520077168164 1.255180103696 1.4083902556428 1.1692131397183 1.2180049120074 1.3094463630505 1.1489642427681 1.1384462313747 1.1216568572423 1.2237961154271 1.361707362233 1.0880037840124 1.163277223889 1.1558501816895 1.1624340805315 1.0869579101572 1.1203526464847 1.2298843739336 0.86261235749085 1.4161846829897 1.0705020746693 0.99244072355209 0.96022637748163 1.1479041833459 1.1167524961989 1.2049566009781 1.5238572923984 1.4352567632054 1.1828133592879 1.2001066277206 1.1966084650358 1.410248658641 1.2738860955693 0.90516575176989 1.0725623894865 1.0627462942333 1.2142561459013 1.0621869413192 1.308063283924 1.1890059702513 1.0052122860849 1.0742833431894 0.9903733430538 1.0378143490994 1.1458235468478 1.213941224783 0.96446595782396 1.3483930820831 1.2637721438679 1.3130711813022 1.128684557734 1.0713971423499 1.1163351724222 1.1647783626168 1.1176238173078 1.0141770378921 0.94115694081343 0.99985808907777 1.3097903741543 1.4204529347445 1.1231948486608 1.0122262873717 0.9092348252944 0.96021565757891 1.0311022918122 0.93649485496178 1.100191554853 0.94101653147249 0.97242152121206 0.87985169987394 1.0901903527595 1.2535001910092 1.0937409013493 1.2145013891439 1.2162466288439 1.6996128319364 0.9687256802944 0.8478997247468 0.52336493628215 0.70032166971031 0.89224190635992 0.90292330340886 0.74878569356226 0.77547249245245 0.90380858239604 0.97733979247796 0.82302912417203 0.88422678114019 0.91447664190579 0.98135041592206 0.89364944573277 1.0228905416278 0.99751765311567 1.0784707744281 0.75737530568715 0.74609635921507 0.98959008408223 1.0093329459759 0.8704478155818 0.96768054668427 0.88253013069751 0.86480926446812 1.0551907730233 0.82634021055926 1.1019285242042 1.1396127639457 0.92717008991133 1.1082718825195 0.76083280586502 0.7972557627804 0.88544686395225 0.90247996021387 1.0757885746653 1.2803341362959 1.3075375795114 0.83365201443543 0.80323735518385 0.83729898656661 0.98368293260278 0.92009438889253 0.98014549050873 0.83447409001661 0.84805689197056 0.84529061335579 0.90242471798659 0.89524257329504 0.76377043566897 1.3377473037054 0.77996492159458 0.78982595213939 0.80333962054775 0.75037840062749 0.7439587432001 0.70993308856823 0.78263567435164 0.83707325968691 0.79551752882627 0.76027506817975 0.80549842950803 0.79673784642583 0.65948709049506 0.76196991190535 0.79081509116048 0.79215307678239 1.3998072793639 0.70985723190002 0.74567649520344 1.0698347162625 0.76672234062173 0.67613475824538 0.746292080441 0.63741783276151 0.78581029903997 0.79547844494573 0.74730231482198 0.69771763047251 0.73943094223031 1.4537575804767 0.69767250722737 0.73644227992432 0.68862777268641 1.2261369312952 0.82296158927745 0.74166287084595 0.83485111260179 0.81730452594439 0.73338896072783 0.68695329297212 1.1530005478984 0.65034338859567 0.68723102509763 0.64775320745118 0.69963446894359 0.74582383198965 0.71692836826818 0.66394249000624 0.70604949974095 0.64370446157356 0.66228193234555 0.83006274672303 0.71169227934159 0.706335944729 0.86840886832948 0.6674249182281 0.75388587013255 1.0324922998619 0.81240689483682 0.85609261404698 0.64628537866434 0.63430556018734 0.59728539184146 0.72887299321742 0.67297848787894 0.6483840113108 0.69084610567524 0.61247836562763 0.62165314523226 0.62633909354056 0.66846126457616 1.0016214842469 1.1051399310085 0.61649850185345 1.2268673735301 0.61256182256842 0.52343310197109 0.60103885840644 0.99970651330034 0.56119487713875 0.79347387616879 1.0985403389201 1.4536579286729 0.72236532509424 0.60251487617237 0.62513594950421 0.67102671620947 1.5631248902835 0.52605449600503 1.5083904194184 1.1436514920442 1.6922708943705 1.3857011856282 0.89951352536711 0.99827037775971 1.5521328113637 1.392083128565 1.4185286945838 1.235007154823 0.8695436435795 1.2155593125825 1.0787189124063 1.2723664006173 0.56324038753215 1.2534698811584 1.0971700547548 1.1590004379958 0.85973649608106 0.98671814849044 0.7745303627988 0.85154900011465 0.99170565915975 1.1477197198567 0.9562662963672 0.44164872499316 1.4931683266603 1.2725104623446 1.1263493563392 0.84154609919773 1.3253771491802 0.20983766973164 1.03600035136 1.4016953486674 1.2793360720724 1.0054077849518 1.1800589428564 0.8004929592142 1.3684774402327 0.63885667647095 1.0000410342953 0.7559911711549 0.66155158876784 1.4738576320571 0.97051299270882 1.6730248107773 1.5542652307109 1.4767231901337 1.13514989873 1.3611389352626 1.3701736572027 1.1188077048625 1.2380110196646 1.1869936334995 0.90215920910936 1.6171989488067 0.82455488096946 1.4409384833797 1.2426726314286 1.314074979521 1.3505029187126 1.2764614437177 1.2609071382306 1.1069248740602 1.1529649785272 1.3452609715243 1.2502534959515 1.2183540562576 1.2497249710936 1.1574815444758 1.2491830810869 0.95701829444886 1.1746690612464 1.2400126549332 1.1305396123756 1.2859465339844 1.15548232768 1.0677843851669 1.1621158913562 0.94862537176188 1.1407984669134 1.0779032932032 1.0744933114671 1.2908787932442 1.2351060910674 1.3111720227338 1.3318985306333 1.1357548325726 1.2151244429328 1.332121917598 1.7897674821936 0.95800558452885 1.3380128005509 1.0281576644307 1.0384686878816 1.2216943282958 1.3097284863363 1.5544396725094 1.4263570152479 1.1261918752653 1.1606340899022 1.0275275551396 1.1345778033325 1.0105941583334 1.3399561366285 1.2813069381924 1.4202441198506 0.99259958114555 1.3315731496122 1.0064483558255 0.95757040238079 1.0616127199442 0.90564903675909 0.93918645255352 0.98261297174407 1.0228684122554 1.1526829169654 0.72748451895358 0.892566286995 0.97534396576079 0.92494110124913 1.1087845299347 1.0557593589981 1.0638048851983 1.0223505110032 1.2902024627754 0.67537174496255 0.88972718440627 1.0013425585895 0.98735875389667 1.066863057547 0.88035546893966 0.94856021749213 0.53573707647937 0.67158612327107 1.0009124778917 0.75364918458269 0.40873570976709 0.80801821542012 1.3485552202782 0.5785798839116 1.209546792514 0.5102874540369 0.55648238258002 0.74732013226304 0.65370885992927 1.0726336141066 0.52553273406636 0.58646569584117 0.55517160057799 0.56300910608941 0.6846758009413 0.76200893662527 0.7781759723251 0.82168949758455 0.67851825325476 1.0932742977554 1.3146193823119 1.1980566011591 1.1665122323123 0.86445613196383 0.62534213034434 1.0065991624381 0.992965444751 0.93814605868453 0.83503014148223 0.30615564714047 1.2889332443199 1.2334002282124 1.1798166567669 0.40272001844013 0.87885237050121 0.62097776155561 0.55138313450098 0.80303498869386 0.81142888810759 1.0457609590677 1.0173106175869 0.56216463603656 1.4136898484599 1.2537535386344 1.3146777703607 1.1188560438139 1.0158398785451 1.4633840073279 1.1860230915234 1.2447507705972 1.2037194155785 1.1037264188285 1.1864933701696 1.0641847899311 1.3093099526952 1.0896774083419 0.94287846407094 1.1273909504808 1.0008725302804 1.2221797143598 1.0368139622059 1.2763289764911 0.87957291297755 0.95210028958483 1.0055680325568 0.73886029168098 0.94811709234403 0.99929152254584 0.919783527