# vtk DataFile Version 3.0
d-2__ created by libgimli-v1.5.0-1-g5991b6ac
ASCII
DATASET UNSTRUCTURED_GRID
POINTS 3065 double
14.646647106361	10.075660810886	0
14.704832811816	9.9744824778853	0
14.741572761215	10.143570688214	0
7.2181179570912	12.323267801616	0
6.9022853070009	12.159878277929	0
7.188568129403	11.864968865302	0
12.573766225573	8.2541691958959	0
12.179090385116	7.8396649872294	0
12.486344232856	7.7791041952802	0
10.909490913954	12.100065284392	0
11.157527929117	12.134706706046	0
10.807865018668	12.328963878518	0
10.246630703596	12.451261426896	0
10.370786380608	12.571785344107	0
10.283370652996	12.620349637225	0
23.486823884586	4.2589561787297	0
23.872774184789	4.3331786567402	0
23.693453371076	4.6788038393608	0
9.4017034496321	12.989518397958	0
9.459889155087	12.888340064957	0
9.4966291044861	13.057428275285	0
8.6528831969526	9.1661723501876	0
9.0889129509339	9.1546198128334	0
9.0172223973042	9.5848707535605	0
4.95	14.894536113346	0
4.9002967662305	14.698789777549	0
5.05	14.834347813918	0
7.8357302798552	13.980149844525	0
7.7483145522431	14.028714137643	0
7.7115746028439	13.859625927314	0
7.9373561751407	13.751251250399	0
9.2631921819019	12.842543338384	0
9.0547266763919	13.085654315995	0
8.8463136869378	12.696007878209	0
6.9615730037337	14.465792775704	0
6.9945996683525	14.319328169198	0
7.136404458958	14.368664189468	0
21.8222466978	6.2098629456668	0
21.734830970188	6.2584272387846	0
21.698091020789	6.0893390284563	0
9.5840448320983	13.008863982168	0
20.073932145557	7.181148808024	0
19.986516417945	7.2297131011419	0
19.949776468545	7.0606248908135	0
8.1805694002704	13.571297247173	0
8.3602246455282	13.688764085818	0
8.1853931903038	13.785892672053	0
20.765748039212	6.6761602926357	0
20.627236771482	6.5291852330617	0
20.823933744667	6.5749819596349	0
8.5857318789655	13.373982996136	0
8.5275461735105	13.475161329137	0
8.3890349057803	13.328186269563	0
9.2343819216497	13.203121154639	0
9.0595504664254	13.300249740875	0
10.311662072528	12.260060065814	0
10.363276453366	12.455311173661	0
20.948089421678	6.6955058768454	0
21.049715316964	6.4666072827198	0
7.6608988246309	14.077278430761	0
7.653388897389	13.960804260315	0
28.908739718026	5	0
28.508739718026	5	0
28.708739718026	4.8492605261212	0
13.77248983024	10.561303742065	0
13.830675535695	10.460125409064	0
13.867415485094	10.629213619392	0
12.119100932851	11.60049948175	0
12.082360983452	11.431411271421	0
12.206516660463	11.551935188632	0
27.358739718026	4.8945361133462	0
27.309036484257	4.6987897775495	0
27.458739718026	4.8343478139176	0
22.57224829691	5.6036960972777	0
22.798029869207	5.4953214203625	0
22.696403973921	5.7242200144881	0
13.080673936584	11.066292257453	0
12.956518259573	10.945768340243	0
13.18229983187	10.837393663327	0
28.458739718026	4.8343478139176	0
28.408739718026	5	0
12.308142555748	11.323036594506	0
22.547801874951	5.2633883138599	0
13.63397856251	10.414328682491	0
12.024175277997	11.532589604422	0
12.031685205239	11.649063774867	0
15.703145764949	9.6093634639172	0
15.615730037337	9.657927757035	0
15.578990087938	9.4888395467067	0
12.444587677104	9.0315078187863	0
12.75	9.25	0
12.46875	9.40625	0
10.45820210822	12.523221050989	0
14.654157033603	10.192134981332	0
17.902749122926	8.2149218349628	0
18.150786138089	8.249563256617	0
17.801123227641	8.4438204290885	0
11.332359384341	12.03757811981	0
11.244943656729	12.086142412928	0
11.237433729487	11.969668242483	0
17.130607666996	8.4717569577762	0
17.327304640181	8.5175536843494	0
17.269118934726	8.6187320173503	0
12.018062834866	9.3144627641309	0
16.96875	6.90625	0
16.518062834866	6.8144627641309	0
16.944587677104	6.5315078187863	0
12.759821286388	10.899971613669	0
12.551355780878	11.14308259128	0
12.342942791424	10.753436153495	0
16.577303041071	9.1237205327386	0
16.453147364059	9.0031966155281	0
16.678928936356	8.8948219386129	0
21.923872593085	5.9809643515411	0
14.508135838631	9.9286857513121	0
8.7098875559768	13.494506913346	0
8.6224718283646	13.543071206464	0
7.5190940340254	14.02794241049	0
-0.24940646753892	14.834347813918	0
0.05	14.834347813918	0
0	15	0
2.3	15	0
2.2	14.888006064741	0
2.4	14.810067208388	0
11.507190839566	11.940449533575	0
11.36538604896	11.891113513304	0
11.502367049532	11.725854108695	0
0.1	15	0
0.3	14.849260526121	0
0.5	15	0
-0.95957299032574	12.742247653798	0
-0.63660515661073	12.736198774421	0
-0.72105850144488	13.237141247116	0
2.9	15	0
2.7	14.849260526121	0
2.95	14.834347813918	0
1.2	14.888006064741	0
1.3	15	0
1.1	15	0
1.9	15	0
1.95	14.834347813918	0
2	15	0
23.155770102009	4.4707815868157	0
23.398627607885	4.6419549088128	0
22.971047224781	4.718656217856	0
13.779999757482	10.67777791251	0
10.633033563444	12.426092464753	0
10.491228772839	12.376756444483	0
10.628209773411	12.211497039873	0
2.0997032337695	14.698789777549	0
2.05	14.894536113346	0
8.8115134512622	13.265608319221	0
7.6871281808847	13.519318143897	0
3.05	14.894536113346	0
3	15	0
1.05	14.894536113346	0
1	15	0
25.508739718026	5	0
25.458739718026	4.8945361133462	0
25.608739718026	4.888006064741	0
0.95	14.834347813918	0
0.9	15	0
23.708017310135	5.0679061559452	0
23.57570494199	5.2584272387846	0
23.492391392804	5.1534065041647	0
6.5387045333462	14.528279940285	0
6.7500015991102	14.393833151611	0
6.7867415485094	14.562921361939	0
7.4860673694066	14.174407016996	0
7.3112359141823	14.271535603232	0
7.3148706664546	14.058847515876	0
6.0874157276122	14.951435706882	0
6	15	0
5.95	14.834347813918	0
13.954831212706	10.580649326274	0
7.5148776296588	13.813829200741	0
11.889880414633	11.599727754597	0
6.8666473488796	14.397882898376	0
6.8741572761215	14.514357068821	0
1.4	14.810067208388	0
3.95	14.894536113346	0
4.05	14.834347813918	0
4	15	0
3.1	15	0
12.993258208972	11.114856550571	0
12.898332554118	11.046946673243	0
12.90584248136	11.163420843689	0
3.9	15	0
4.1	15	0
2.1	15	0
5.1	15	0
5	15	0
7.1315806689246	14.154068764588	0
5.9	15	0
5.3	14.849260526121	0
4.6070433069999	14.368240644588	0
4.6	14.810067208388	0
5.1938980518111	14.524993056905	0
1.0997032337695	14.698789777549	0
25.708739718026	5	0
4.7	15	0
4.5	15	0
24.408739718026	5	0
24.316180298466	5.0287141376427	0
24.321832839145	4.8833962425865	0
24.708739718026	4.8492605261212	0
24.508739718026	5	0
24.458739718026	4.8343478139176	0
23.483145522431	5.2871413764274	0
11.573663228844	6.6878504141764	0
11.783228215591	6.953244789404	0
11.498511972069	7.1356956560705	0
25.308739718026	5	0
24.908739718026	5	0
25.108739718026	4.8492605261212	0
25.408739718026	5	0
25.358739718026	4.8343478139176	0
15.520804382483	9.5900178797075	0
15.528314309725	9.7064920501529	0
25.921540276389	4.4709363375124	0
26.277022110672	4.3098125374061	0
26.309036484257	4.6987897775495	0
21.069293459246	4.0184782266431	0
21.444587677104	4.0315078187863	0
21.46875	4.40625	0
25.214841666215	4.524993056905	0
25.508442951795	4.6987897775495	0
23.395729794819	5.3357056695452	0
23.358989845419	5.1666174592169	0
29.8125	2.6258505226016	0
30	3	0
29.625	3	0
5.8122409423352	10.291228465074	0
5.9889649985263	10.545789285321	0
5.5715926789368	10.688360310892	0
12.278524372398	8.4033099465931	0
12.266749266227	8.7424709281467	0
11.71080923903	8.5533847165846	0
26.458739718026	4.8343478139176	0
26.358739718026	4.8945361133462	0
23.147692779655	5.301064247891	0
23.04606688437	5.5299628420167	0
11.120787979718	11.965618495718	0
26.408739718026	5	0
26.508739718026	5	0
26.708739718026	4.8492605261212	0
9.409213376874	13.105992568403	0
30.458635160201	3.8690920654536	0
30.669330384347	4.1196162860905	0
30.364109258215	4.2441307961306	0
28.358739718026	4.8945361133462	0
27.408739718026	5	0
27.508739718026	5	0
25.6875	2.4642195584136	0
25.771866335589	2.1927504712561	0
26.053487503597	2.1539862920131	0
25.384151503975	2.7152844425934	0
25.6875	2.76491822766	0
25.5	3	0
9.2674085862685	13.056656548133	0
27.708739718026	4.8492605261212	0
28.308739718026	5	0
15.382293114753	9.4430428201335	0
29.308739718026	5	0
29.358739718026	4.8343478139176	0
29.408739718026	5	0
1.8061019481889	14.524993056905	0
29.658146185565	4.8343478139176	0
1.7	14.849260526121	0
1.5	15	0
30.090078193556	3.9711909286582	0
15.173827609243	9.6861537977444	0
15.3534828545	9.8036206363886	0
15.178651399276	9.9007492226244	0
18.23069193846	8.0845247930538	0
18.238201865702	8.2009989634992	0
18.11404618869	8.0804750462887	0
4.8	14.888006064741	0
4.9	15	0
16.402471585846	9.2208491189743	0
16.394961658604	9.1043749485289	0
16.489887313458	9.1722848258564	0
6.1791038580454	14.704649136022	0
17.36404458958	8.6866418946778	0
17.451460317192	8.6380776015599	0
3.6	14.810067208388	0
3.7	15	0
3.5	15	0
16.922142161486	8.7148679353872	0
16.4287009421	8.6628888321103	0
17.302858218222	8.1772459009316	0
17.553086212478	8.4091790074343	0
14.056457107991	10.351750732149	0
14.828988488828	10.095006395096	0
5.5	15	0
5.7	14.849260526121	0
21.1875	4.5625	0
20.90625	4.71875	0
20.882087677104	4.3440078187863	0
6.8150329680421	14.202631790528	0
6.4739761191302	14.193291511538	0
15.804771660235	9.3804648697915	0
14.930614384113	9.8661078009702	0
4.3	14.849260526121	0
19.199774869435	7.6667917392027	0
19.112359141823	7.7153560323205	0
19.075619192424	7.5462678219922	0
9.9706052236163	12.250719786823	0
10.035333637832	12.585708215571	0
20.860673694066	6.7440701699633	0
20.773257966454	6.7926344630811	0
9.6856707273838	12.779965388042	0
-0.43250979015094	13.369587523725	0
-0.85662454898514	13.581460773951	0
22.514062591455	5.7048744302785	0
22.375551323725	5.5578993707045	0
20.742913400511	4.047377368749	0
21.292928542093	6.286653279494	0
21.472583787351	6.4041201181382	0
21.297752332127	6.5012487043739	0
24.1875	2.7176993931111	0
23.626112873365	2.548251847651	0
24.1875	2.3788043021908	0
21.958672828761	5.41136391053	0
22.167085818215	5.8010103483154	0
21.673644598829	5.7490312450385	0
20.175558040842	6.9522502138984	0
19.891590763091	7.1618032238144	0
19.899100690332	7.2782773942597	0
19.017433486969	7.647446154993	0
18.878922219239	7.500471095419	0
18.325617593314	8.1524346703813	0
6.2866035579579	13.872661794752	0
6.1724083866651	13.36768415665	0
[...]
CELL_DATA 5846
SCALARS Coverage double 1
LOOKUP_TABLE default
2.4089389723883 0.94435022624497 0.82178599486811 2.2943850303991 2.8637254391459 1.4094665848683 2.4241869586993 0.71731123158351 1.8725638119574 2.8105668493328 2.2590198031061 1.9611663770445 2.3128597816647 2.8259187105905 2.8624930361027 2.8456656293186 2.1825209054033 1.9057234658123 1.9731839437763 2.1988934287311 2.0011147140958 2.2548661591862 2.839285863756 2.0226443811252 2.4491198395708 2.8966669053538 1.6471266128855 2.2301124215564 2.3455589295799 2.6966067500353 2.3314023920643 1.9846144605496 2.0328057147104 2.9108139852853 2.8954318912062 1.0679193726239 2.3365758496751 2.9113944787287 2.9531869540561 2.2950822402771 2.9228100777758 1.9916571801652 1.0289147609019 1.032169071177 2.4389537067473 1.9902415078122 2.3290786356838 2.2426059222205 2.0235063056476 2.8409021201651 2.3698069146926 1.5200606753203 2.0611473766953 2.258333105914 1.8419390491697 1.8136297907909 2.4088478695738 0.22529489423808 2.1848962454605 2.1573154308241 2.7329052553033 1.4303711339787 2.9563635989303 2.2547571899822 1.7582654638201 2.1499201560651 2.0097189904691 2.2572609588127 2.1406434350061 2.693037303912 2.2769501256922 2.6864912600329 2.3008312715975 2.2529241678571 2.1520292604336 2.7686891908779 2.5224531860223 2.9313817789605 1.950376037493 2.4413364963637 2.2760869138933 2.0026322876443 2.2611863288126 2.7755536318373 2.4725647827152 2.9368706872433 2.8174464618009 2.7606384724169 2.441064770777 2.2086847450762 2.7856549040708 2.1656632407945 2.5631000227321 2.2096589792737 1.8349061462917 1.9865477393114 1.6073693902126 2.2728515791629 2.8328769292371 2.3782551950826 2.2200730485958 2.0754047809912 2.0893145772877 2.8646582868818 2.2355761032086 2.8891406025949 0.61903696728204 2.1195572295693 2.724549168253 2.9316069128246 1.5332784374921 0.92371374299844 1.7186199213561 2.8577261217097 2.7689919495556 0.28942904034742 1.978598146421 0.63435830142352 2.1833273251142 0.87896605773262 1.7139088995262 2.1950520494154 2.3666540641697 2.1892676035677 2.1345075871938 2.8786119801519 0.54558896521591 2.1619364503097 2.7062387073996 0.5435742493106 0.68220154446673 2.3711102379434 2.2780523733803 2.1058503373923 2.6948448495342 2.0070870927635 2.8744152814057 2.2709369790303 1.706355744859 1.5506239578823 2.1079975756883 0.52958478155147 2.9133895268037 2.2495095359616 2.1006815150277 2.4415204646814 2.2936118285426 2.8374181531027 2.9385349817676 2.8955652213339 2.0748276376796 2.7349681078989 2.888354188543 2.0704835604198 2.081136193952 2.2365689767597 2.0974620422617 2.4014871461937 2.8069311860962 2.1753597845027 2.3558108815322 2.9247125049882 2.3021878499693 2.1475571079223 1.0128847161036 1.8664242074699 2.391524881907 1.8396228082344 2.3386456026638 2.3570154830784 2.8533357303211 2.1807250898363 2.8562807923482 2.10201388133 2.8671718554457 2.8291180415885 2.3041489591427 0.40208838674785 1.8720741378108 0.87775317845205 2.1346830501267 0.64253916941639 1.7875858260174 2.2779085947336 2.8910376737651 2.0568241817856 1.9516249851042 2.9020888055071 2.4015491377127 1.2914931521272 2.3125186318015 2.2457901490353 2.9012297784832 2.0288131195478 2.3499268602256 2.2890657845086 1.5856004960565 2.8593519880986 2.3254804589125 2.3418632689233 0.38432767089483 2.2442748870443 1.9024292441619 2.419968668845 2.212167970946 1.6246662258082 1.4969827689883 2.7136567352901 1.5064819194666 2.7134362640599 2.7333786003963 2.8810705388583 2.322852165404 1.7657237440933 1.9312725996697 2.9348110170209 2.3875915982456 2.4233746519898 2.0978186356971 2.4389413552229 2.2604232102272 2.3370455431664 2.1552573412992 2.3573338915299 2.167222023858 2.4427160030073 2.2621913492687 2.424347467966 2.0899078474118 1.8133704472412 2.0866017323117 2.2385474670399 2.2779449943494 2.8139040558162 2.8463781900197 2.8579572079546 2.3120145368025 2.1318997864433 1.9338095663156 2.1682166767215 1.9819843977589 1.9523838072496 2.0807904400325 2.18785283843 2.3722890504619 2.374444983949 2.4174850450116 2.4119592982621 2.2257743316084 2.3024288398146 2.1058015587368 2.3251107556847 2.0016952663171 2.281503236234 1.9406590287216 2.017251229674 2.0481421198687 2.3222059901496 2.4043075638429 2.2375637572555 1.857897405497 0.67705187189623 1.920200592203 2.1528079125496 1.7583542610569 1.9414003311153 2.3376229478881 1.7602433772198 2.1045167264559 1.8164145691559 2.4511032568708 1.9999443322572 2.0989293184137 2.4541043724052 2.4684104123033 1.4497990876403 2.0257671257538 2.3725420113191 1.8901416517907 2.0683767779895 2.3955362262358 1.8386002658967 2.0932497944838 2.4734200206641 1.0861005551379 1.9363599157249 2.4600325614359 1.8571442186464 1.8095180835242 2.1665072187659 0.73328947799632 1.8602393260323 2.2021451965966 0.90937366852746 1.9507149534026 2.2179232442955 2.445087792556 2.1394502167115 1.977727493026 2.343900252843 2.0253308639275 2.2587724469451 2.3623769763695 2.321364398982 0.79664269183316 2.1125438253188 2.3503581464344 2.3475504251695 2.3980579699166 1.9082218492925 2.1455133436137 2.0093208647677 2.2328798116792 1.9080147544898 1.6272637417733 2.1861902768535 2.2143870117822 1.9020774873183 2.1557928798079 2.2324720137446 2.0450774754561 2.1508117557009 2.0522944926161 2.0028465675314 2.0154297028522 2.1874472945259 2.2173323772474 2.3336208051105 1.9130136353261 1.5606040872836 2.2225397638914 2.3412231358259 2.1202924303915 2.2406974509137 1.2767961823038 1.5596291418257 2.1296607409851 2.249772164263 2.2181783387686 2.3356627045294 1.8450475912897 0.94506392354565 1.893880775637 2.3224456710247 2.055806636576 1.9399189037202 2.0827706066524 2.409705857457 1.3307470513664 1.9782914652728 2.188062813395 2.1865279521494 2.3025677160421 2.0663746812273 2.1997555925226 2.0860247314521 2.4317962227697 1.9630725119448 2.0359741599123 2.1034830763594 2.0242207719229 2.1996040371381 2.3156747730531 1.8736321113565 2.1761504766826 2.1678235464156 1.4378011626106 2.2256691417559 1.4139520394986 2.2031684236838 2.3135635867922 2.0920259820129 2.2146066061691 2.0487147274424 2.1102370384428 1.8941959032565 2.2742861236426 2.1352931209695 2.2229432571702 2.0517821071652 1.9513110502117 2.0552486826929 1.9890454371896 1.5368225156537 2.3925561819628 1.8769303622131 2.4114569210763 0.90496983370916 2.1369254990604 2.2388189224786 1.8837497294734 2.1904100268046 2.2509181114648 1.9858523296184 1.5493006665868 2.0807333245251 1.8506401498482 2.0756244067408 1.9781258173553 2.0267837710016 2.1747083011944 1.2823048811997 2.1982304631404 1.8181722545958 1.8380778735451 1.1799609123158 1.9741103292257 2.2942270577125 2.1964329700452 2.042748895232 1.7825499694765 2.1239493465453 1.954342809144 2.2726364500375 1.9394309954562 2.2717821659799 1.9608317182976 2.2885017574977 1.8667172972664 2.1778948952095 1.7865988089919 2.1956833399745 1.9574003304296 2.2938000136384 1.9539134683859 2.2793101667004 1.6061667443781 1.9600287469242 1.6696768637796 2.0038079334639 1.9315640705441 2.2549751198828 1.8265974972953 2.1363816860401 1.8403337533741 2.1644835175588 2.1969659132912 2.2289850466684 1.9014227709932 1.9890110108734 1.9183464248273 2.2843013355282 2.2313803706265 1.7775351653408 2.2085466710346 1.6922466843591 2.1006400360361 1.832948340634 1.5713717395641 2.1345706630095 1.8264696036385 2.065655816563 1.8145115412087 2.1210182748976 2.0305755454142 1.8807988024309 1.8517168011197 2.1325487781767 1.9930383993026 2.0169197834683 1.479050234588 1.8429126580428 1.8077829129763 1.812140048865 1.7946653515081 1.9244825726646 2.311166306808 2.150839023309 1.8267017433781 1.8061305740813 2.2359760810051 2.0288596947812 1.8573966914211 1.9224863334113 2.3174033582252 2.1757030366451 2.0486565579944 1.0931625707874 1.1934170756075 1.1409985156313 1.0641379590837 2.179985297818 2.0708821231 1.9153216426154 2.2653546014018 2.1534614076166 1.9955481192345 2.2427435070435 2.0694454062871 2.1751980990832 2.0141285468379 1.9282977354504 1.54497898465 2.1014188949681 1.9484699122631 2.0220143653594 2.024592928389 1.9801467410716 1.8105508976668 1.9812275877227 1.857156705173 1.9164407756536 2.2249460131532 2.1284277822837 2.1624598416143 2.2375170283588 2.1155500020357 2.1680127309024 2.1361699061824 2.04566694058 2.0694287207025 2.1678592921928 1.8887134952096 2.091191378573 2.2538671389524 2.0933368681289 2.1753365703668 1.9122171739326 1.8509625847679 1.8280657470392 1.9524896039731 1.8867210238161 1.8831288563589 2.2172980919179 2.1302495603416 1.9789441571648 2.2160504499713 2.1008828350658 2.1425813356489 2.1198430279178 2.0087880491133 2.0303477794149 2.1919842720552 2.1459148514479 1.6159623305462 2.1810923839965 2.0100352234932 2.1129648312593 2.2595566327833 2.0881635924635 2.1756339687007 1.966569084896 1.8576983943097 1.4126649200491 2.2271375156286 2.1099413444732 2.158592528462 2.1282240491566 2.0236230337725 2.0574215084919 2.0935134130389 2.0599718490925 2.0102200253637 2.0115362462429 1.9781203217726 1.8230899742745 2.1769527965977 2.0295922992672 2.1125513715767 2.2187269571344 2.0367175469054 2.1442448527791 2.2006529043095 1.8853498097259 2.1283058683984 1.843691388885 2.0057351078728 1.7225832377988 1.6234857077909 1.6725312880916 1.3285709250049 1.911072219163 1.9662703774579 1.9189410027338 1.7645873682318 2.0068773718734 1.698155733096 2.0414571944286 1.6835888109994 1.4164567793984 1.5733794642514 1.5845301284697 1.8057608646621 1.3599217298851 1.6002846188351 1.6980281862254 1.6158041968035 1.7421006866979 1.51360339801 1.962883013113 1.325205613727 1.8099555439497 1.6506342516629 1.8729821814902 1.8625650657547 1.935602414068 1.8045355695773 1.0010036610462 1.7047242080688 2.0431958026314 1.7281709009924 1.7943938938874 1.6644881662037 1.760375617415 1.6542096587766 1.9490383126232 1.7393081727084 1.7763663041624 1.2373942451138 1.9613285106344 1.4007573388341 1.5974162371041 1.5484202986063 1.8983141845202 1.9104662922567 1.8827756332246 1.796015543835 1.8412070664255 1.8001217106812 1.641556199168 1.8825567846538 1.7580418502391 1.9488646738858 1.8218875716802 1.836008880604 1.5982470355015 1.565272269704 1.7521259529596 0.90431743182156 1.6375748346499 1.6584972725401 1.7927298507975 1.0721150231608 1.7704885319399 1.0605169266569 1.9670520553782 1.6862139662969 1.4631567419623 1.7287689111233 1.3037906176922 1.359709987797 0.73002802592302 1.0253855135236 1.3861347724432 1.7588464820519 0.52992229094859 1.662485949325 1.166644686243 0.98297991247602 0.48293582213491 1.0867892933791 1.2726934299275 0.76867253981037 0.49130952107377 1.4696132361688 1.443827519307 1.4083714699485 1.9715207437168 1.7724689729977 1.6959467512209 1.3577465165866 1.3820603749016 1.7802182451561 1.9214523058544 1.2909406594902 1.5253265793867 1.5648592906417 1.7738663674563 1.0696925006794 1.6594664830213 1.806343990464 0.87956504382589 1.0964665367825 1.3237982097367 1.0384734602951 1.5124908934774 1.7840051112708 0.86636028194448 1.483094632717 1.6643636646759 1.5939332401614 1.3675634624403 1.8296804621208 1.1815856802178 0.97894261956381 1.9764998149044 1.3645558038421 1.2932123914209 1.3460321682105 1.347752312371 1.6073884917378 1.6549863076123 1.6503103032071 1.433935315864 1.3628822958546 1.5984162843148 1.4129180977567 1.6135072190373 1.5499545061521 1.5995994283254 1.8359046830375 1.4633729734845 1.4414427428377 1.2925982404878 1.1167978053492 1.6468168369454 1.4604875100153 1.5845023105788 1.7303983376986 1.8595470983512 1.4493888555175 1.1365674428378 1.3581111746463 1.3025243070668 1.0955312079685 1.3482017563875 1.0018688954223 1.6892377286613 0.98483761065471 1.6393882907517 1.4012473874177 1.9336674581591 1.7168963527031 1.0060316843923 1.8318063282783 1.6726987973125 1.538802661965 0.48911506151773 0.62040041970901 1.4005641521042 0.95674026452125 1.4974380687548 1.0106474102734 1.4359692774305 1.5692117386777 1.908522823719 0.93583900244574 1.3712773632406 1.241474344489 1.2443702840544 1.5096009368859 1.472229347254 1.4589073720489 1.3091826537803 1.5494258273065 1.3787040421501 1.3227114368353 1.1844969815449 1.196968229177 1.2995475119273 1.5271847115785 1.3797494518877 1.183508608829 1.6600217829391 1.5062826439785 1.3440240157535 1.6076238821822 1.4123956357363 1.5768331750706 1.2916315650842 1.6512752620585 1.3660245727299 1.6594001638554 1.4588854468004 1.5348866296276 1.6289455770632 1.2435708568467 1.9767318042587 1.5176677004736 0.97485433746474 1.3501155202304 1.3820462389173 1.7217795689174 1.275266494994 0.96018999400996 1.1934909231209 0.88243559128195 1.8277025125994 1.0762824369447 0.9844107061582 1.4953212437646 1.3559436669517 1.4476157606235 1.844985445225 1.6007872983201 1.715383557755 1.3118860688227 1.9941859783912 1.8062994258511 1.3360694865884 1.41548245109 1.3654486262737 1.0657854483253 1.3306762608377 1.3879213432732 1.586431099002 1.3615310615353 1.4923421230786 1.3846474050916 1.6828393714782 1.8317931933662 1.3472300480676 1.395726326448 1.3765471119042 1.3646242406382 1.7362056931328 1.6935418256179 1.2609534639598 1.6465589543629 1.5443137934941 1.2250510406801 1.3033193510464 1.1270542242767 1.1608147539995 1.2304419090962 1.390505567203 1.3434341384352 1.3909243545561 1.3874152115236 1.0115599601168 0.88551772084765 0.9617563752696 0.95161901590656 1.4300733769921 0.98485078123841 1.3224608744247 1.4035820734502 1.1596344071008 1.2924455575733 1.3200559468336 1.1207362807762 1.1622629794175 1.1526605414127 1.1574136057988 0.79340984551913 1.1034802564388 1.0435715854077 1.186171496443 1.2197287734513 1.0539699951299 0.75341207909715 1.0746734916191 1.1814271331365 1.0657289720531 1.0352078729628 0.90442122375278 0.91181751866199 1.0044287348764 0.81966435138374 0.89410096789393 1.3505649773897 1.3162322820928 1.0801923203784 1.3485909039972 0.81401204732427 0.97465740986396 1.0255961607515 0.84485510638685 0.89246197667629 0.89235893426777 0.84660855309317 0.77413273607236 1.0276889111893 0.92717991325386 0.98308601152447 1.5465919322435 1.1686494602625 1.6776408981509 0.77530004650479 1.7194534252998 1.3687022431556 1.1581036596149 1.0675738363261 1.674818579965 1.535462478063 1.3144294488264 1.5781816225753 0.57540144133428 0.76360526381705 1.3246394540946 1.665146712975 1.6751214677969 1.3842540375736 1.0098121227864 1.2871784783665 1.8258647671123 1.595186074166 1.706333941168 1.3174537859603 1.3464559726924 1.3877328369741 1.4632783760954 1.2469401508706 1.0620775505417 0.86994086219347 1.5046369109874 1.8966443469167 1.3859313905176 1.3750863533545 1.4596388552206 1.2009239123608 0.54469144528841 1.2497526496345 1.2887070539361 1.3673617676166 1.3150631266257 0.98992574791025 1.3186318518969 1.2934823461265 1.3053253852461 1.2771900305272 1.3751673055819 1.2957536780028 1.2883416114095 1.2849302156784 1.3006704312941 1.3224771658491 1.2830674537463 0.70064037907858 1.3037136224698 1.3355906447048 1.309762119636 1.3061154519688 1.3007902439846 0.94415751265743 1.3384946514335 1.3335670808239 1.3323386503264 1.3011294188662 1.3483493734921 1.3151118172523 1.3458674089892 0.97768183819317 1.3049454094787 1.2993269356179 1.3106250005586 1.4857446073773 0.82612686387508 0.92647467629806 1.3375430205561 1.5064700713545 0.95234930108272 0.98867310795606 0.97725374525205 0.89751113911113 1.3192369924472 1.3217242253393 1.341912209433 1.3570583037953 1.3571706510545 1.5483781986 0.98765759343397 1.4133276569113 1.6659217128273 1.6036869744812 1.5337825033703 0.95639510549798 1.3740316650213 1.3534321805715 1.3802346949195 1.3228499530271 0.8932480878441 0.90152285916327 0.91255160550482 0.96795583353116 0.86487696634974 0.99542341396818 0.89874204393682 0.9237289649307 0.85644098277208 0.83655204817306 0.90310762137627 0.92399722220653 0.84264792130914 0.83548770233239 0.88226158145628 0.9494827682624 0.85677395832836 0.86507121989641 0.8026779038712 0.74760221036408 0.84678596088914 0.86076080333047 0.77282448095574 0.7796611514126 0.84635831703232 0.92133587772756 0.86854404977576 0.84063699109746 0.90544296621382 0.82777240407914 0.83977993684783 1.0353472296266 0.83700598450739 0.76871337159876 0.81499306535558 0.93746164026931 0.74197398008197 0.81912188773201 0.78892364256137 0.78381034905682 1.025340410824 1.3873778248551 0.87235530808939 0.77297856842609 0.70119302340541 0.74829994879818 0.81541137870306 0.78015427231178 0.75807681923738 0.76635170516535 0.72047621322247 0.99261614631945 0.70413873469419 0.65181186871525 0.78269720423234 0.74245971786866 0.87441725419899 1.0128524993378 0.90700451676 0.8796371610826 0.78962858715092 0.75153379992772 0.73815289644016 0.76009816830059 0.6933447918988 0.73199529388334 0.73584088536419 0.69269601317907 0.81142876338872 0.74011608259926 0.66214389714111 0.61545125134815 0.89334766790726 0.77355319676014 0.64545777993135 0.70115504821017 0.97045503520798 0.97293255532885 0.95269384772913 0.83595686985155 0.67930906281715 0.73297969115016 0.95430325496698 0.84299084575956 0.98900007760898 1.0081170268969 0.84092852119379 0.76611483893303 0.92582995826876 0.91637313782077 0.89992548005497 0.82509910385758 1.2890816654716 1.423078917272 0.62395021762975 0.99540017150956 0.6071013812956 1.0966773318524 1.0705266917379 0.63156211070975 1.0505962066308 0.8293544666414 1.0210762957739 0.90966477984215 0.99363539810878 0.8301225676801 1.1257566073436 0.97723182320905 0.96001082591045 0.89448987298877 0.9598942236033 0.66850796381934 1.0737061865678 1.0716874180486 0.58649920401787 0.71537417036867 0.94531522328663 0.93007353423965 1.2663599346203 1.0965970604191 1.0894864972229 0.99037490160661 0.72702187845965 0.66946733121233 1.0126630157532 0.65326448117192 0.64966905395822 0.72577609715867 1.0699395463017 1.0419241929086 1.1604627993123 1.1607131468528 1.1669566438484 0.79918374709289 1.17596767062 1.0021547650809 1.0994018736034 0.60525623204241 0.63163177645955 0.7002018903526 0.69450240447815 0.58978127622254 0.98840005625106 0.71649581817874 0.69327504973513 0.56373730763068 0.53296209031968 0.57576856822772 0.54104994746544 0.6879383373295 0.56823870823309 0.57228166800551 0.48772260103946 0.61114336262858 0.54495849463387 0.60102521901655 0.46069122322826 0.63206932287334 0.54789434647195 0.58650251214269 0.60019872310269 0.52224055902042 0.41989511628062 0.57431742974048 0.51093250440935 0.65053581394608 0.50314674049826 0.42572656321992 0.56468437879485 0.68436730883523 0.48296810465543 0.53086041845132 0.6335617072167 0.72364697750078 0.44741489892858 0.35319110612596 0.54325890331117 0.67005112235046 0.61785717047508 1.290780052882 0.7660317490286 0.79751064934248 0.51913344209499 0.39585090729651 0.49867856259429 0.48557206388275 1.3474070324896 0.52599559182506 0.48825981376135 0.30392404059377 0.46818121103863 0.49393174595472 0.62254711457166 0.43290772501015 0.4233149573465 0.54591352209572 0.386017091554 0.65801804481125 0.5724863054347 0.67138382455383 0.52798947840528 0.6518563091741 0.42029850143599 0.35871642684843 0.41578707705355 0.57333116750957 0.48261786120228 0.44697763736317 -0.070473434173479 0.4443141935255 0.3530589353899 0.32638776869749 -0.021818070185289 0.222146401538 1.0523437547979 0.85295501136452 0.65146839820734 0.87865865491607 0.5930193580437 0.73304878457273 0.64702784745429 0.81841358421477 1.1950335677817 1.2641816394664 1.6812719325049 1.3913198462019 1.3917689458439 0.99016396018938 1.3862341876112 1.3459357286665 1.3694320664719 1.0454061728885 0.94008697158657 0.96456736936136 0.9451731160621 1.0206767576201 1.4326449088378 1.3410961011428 1.3288919863518 1.3230352889338 1.0223858932135 0.85197718607576 0.93513314532294 0.97534062236493 0.89043129943268 0.89802368965098 0.78683644403746 0.78520221539707 0.87774346837566 0.95933003585833 0.82301931365354 0.90588741459636 0.90320465179407 0.87386904542411 0.79033374622539 0.82460716577006 0.83908351078293 0.76371094774224 0.82546141023128 0.80520797205239 0.73062938634226 0.72445281341423 0.86269587664004 0.79854590772268 0.68221642681704 0.73857912202026 0.7382785268941 0.77297587635121 0.70057158383887 0.6151619942835 0.70195022149563 0.69711760339529 0.74155918593275 0.61817513090565 0.68279