# vtk DataFile Version 3.0
d-2__ created by libgimli-v1.5.0-1-g5991b6ac
ASCII
DATASET UNSTRUCTURED_GRID
POINTS 3503 double
375.1578521782	-10.539151806402	0
374.30878561874	-11.333149474909	0
375.3080427115	-11.55073527979	0
353.15258822552	-10.422449633894	0
354.18292561154	-11.057857317938	0
354.09071294025	-10.152986335986	0
314.51658123431	-21.368484601131	0
314.96475377565	-20.187401839325	0
314.09486661769	-19.791134994325	0
335.06063641948	-18.727786604686	0
333.91590926067	-19.498034653476	0
334.91220138096	-19.749030751392	0
312.87716728938	-15.00604677148	0
313.69828752852	-15.580536085108	0
313.98359442208	-14.619871526021	0
341.70988577375	-28.660260789144	0
342	-30	0
343	-29.123588643481	0
348.7531633215	-17.546589094766	0
347.86234665953	-16.451218929466	0
347.86425349804	-17.846833147372	0
375.15001567568	-2.6543707282398	0
375.08920457871	-4.3757358784135	0
376.22037756121	-4.0797248193676	0
331.24701524002	-29.00972685821	0
331.5383179196	-27.800276696779	0
330.46657948895	-28.04094051305	0
337.48803825856	-27.051366115864	0
338.32343370468	-27.334799680269	0
338.02796277779	-26.445571565557	0
357.20605079121	-14.709569472276	0
357.85756660241	-13.654967184957	0
356.78162696934	-13.544870688863	0
328.54735744887	-23.256550472402	0
327.77170479073	-22.704596806248	0
327.40759358459	-23.530845980281	0
346.62961148435	-22.534259875623	0
345.7207320123	-21.54193898275	0
345.78582542797	-22.39470673296	0
347.28490189136	-26.096656943139	0
346.55078637646	-26.971375159464	0
347.59285754109	-27.19630273383	0
333.01506724416	-16.343217962281	0
333.95176015367	-16.823038042938	0
334.02850253057	-15.519019049605	0
341.11027567368	-27.864123774538	0
341.93773697254	-27.308539202209	0
348.23976421434	-26.422192246908	0
348.23606287066	-25.506374143487	0
340.7815083627	-22.561631757902	0
339.95527348683	-23.411233939364	0
341.08560404588	-23.767381049592	0
328.20142864825	-19.8594185078	0
327.41468444396	-20.437670481708	0
328.6128679825	-20.679263753271	0
344.63906255701	-27.131301422613	0
344.91507157142	-25.969027191901	0
343.75330397773	-26.247161011632	0
342.60533908547	-26.367001824738	0
341.59001971585	-26.354536308704	0
342.77127924898	-28.039077133929	0
343.87641950859	-28.123595788103	0
342.98714802434	-24.466235767669	0
343.99938007848	-23.757278462125	0
342.82766487631	-23.364445574604	0
343.3902395715	-27.213238459131	0
344	-30	0
344.47000762137	-29.026773541979	0
345.4283684451	-28.527152251101	0
345.03125	-30	0
342.10804674891	-25.516345982921	0
343.09257647957	-25.476143512093	0
340.2340649423	-27.389127803649	0
341	-30	0
345.56872553926	-26.738162001498	0
346.41565706211	-25.356068680999	0
344.65932317038	-24.802127402381	0
341.28276686316	-24.825461740858	0
340.76171399362	-25.767221706505	0
340.5	-28.8771229825	0
340	-30	0
341.86534410235	-23.171226400586	0
342.02816341031	-24.13915449407	0
345.86814224652	-27.661654107097	0
346.75696928487	-27.857963937904	0
339.71109539013	-24.570917083129	0
339	-30	0
339.5	-29.104597936777	0
347.09375	-30	0
348.125	-30	0
347.94100745271	-28.986442887947	0
346.11461824861	-29.104624705985	0
338.99376444428	-23.814330701581	0
339.11289562393	-25.324175349654	0
339.80007322831	-26.056412468667	0
338.16751139807	-28.66810303358	0
346.93840036055	-28.74994701989	0
348.27804492159	-28.013017481755	0
345.67470620743	-24.64403880213	0
338.21670176545	-24.974779378868	0
338.25762748325	-25.727537191637	0
342.51081497097	-22.449493860525	0
341.77753932575	-21.8171669437	0
346.00484330547	-23.221435925561	0
345.08565052908	-23.802012599889	0
343.52096580134	-22.493405775632	0
343.07764533576	-21.050837360621	0
339.03989993998	-20.139486053589	0
338.05817368029	-21.216453195392	0
339.57790204509	-20.912859002522	0
347.59468273575	-24.852640236576	0
339.75341858333	-22.388374595877	0
340.49294446791	-21.137022665224	0
339.32785194185	-27.993107166835	0
339.44621372508	-26.908666170907	0
349.32293879219	-28.919860490172	0
350.1875	-30	0
350.38733685352	-28.953973165014	0
346.67900715046	-24.340483727014	0
349.2451130525	-26.505912038336	0
344.79971102888	-22.731845314405	0
350.48339173151	-25.804360955916	0
349.06582591228	-25.67780995318	0
346.99172996874	-23.389488736344	0
348.23524534544	-24.087130531198	0
348.87668944105	-24.851901763769	0
349.83477727934	-25.067106214402	0
339.00599169901	-21.661504806153	0
338.68805901562	-22.736146736974	0
341.6699128258	-20.396834493094	0
343.00311025676	-20.002223728293	0
337.64588799407	-22.601008203293	0
337.97354771478	-23.599518077485	0
336.5696025807	-22.61171969468	0
344.01022177956	-20.303674235911	0
340.54565406524	-19.914996930877	0
337.10364236907	-24.462448472632	0
336.20853425439	-23.62568946289	0
342.68199931048	-17.840113055478	0
341.22406946366	-18.187754786985	0
342.34580285034	-19.1818012753	0
335.14053768741	-22.674110553206	0
337.12375843727	-21.688997464684	0
336.33717320029	-25.697849369013	0
336.05041231577	-24.691980125629	0
335.82963242213	-22.06026340325	0
334.93358930147	-23.981495255923	0
334.09073184732	-23.178006286527	0
336.33951510241	-21.088377353552	0
334.06417241352	-21.777153276644	0
332.94057652017	-22.995946034449	0
336	-30	0
338	-30	0
337	-29.19774860681	0
348.74329295316	-23.420805856725	0
348.6792793684	-22.585339995972	0
347.95812535801	-23.128209221327	0
350.3501812348	-24.197671888416	0
349.45939240383	-27.707232445869	0
351.734375	-29.144248289179	0
352.84882294577	-27.889530040813	0
351.21875	-28.288496578358	0
351.34132639573	-24.395632880694	0
351.20928807154	-27.311279310884	0
351.88182217129	-26.602236998598	0
349.21517795501	-16.794133156697	0
350.32058079816	-17.10394245671	0
350.10490030143	-16.258997873637	0
345.48526666967	-19.459093843261	0
345.58821240599	-18.247993180035	0
344.35288139517	-19.158887816403	0
346.65649586073	-19.484436504778	0
346.25126390996	-20.541681308597	0
347.61936264003	-20.459777442039	0
338.81243336677	-26.237938671526	0
337.25429811215	-26.200727719844	0
337.48612896069	-25.391990373751	0
344.3789271865	-21.440339481862	0
347.84391578498	-19.275149678956	0
347.09871655868	-18.52029622732	0
337.60176175697	-27.926173010404	0
336.67505358025	-27.817799716283	0
347.86829711434	-22.189009469588	0
348.66449579864	-21.682814900134	0
347.05594685479	-21.709163303783	0
345.11942480936	-20.572008845279	0
349.70082943376	-23.423140079513	0
335.314284051	-25.479440285085	0
334.5	-28.976922582051	0
334.33986495096	-27.849516635116	0
333.34910807472	-27.740283311285	0
336.53572602175	-26.855611412651	0
335.54331808192	-26.911276082219	0
335.81738102898	-28.747995168995	0
333.93056661948	-24.189841038622	0
334.26590313415	-25.217182746704	0
335.33231591928	-27.881566878836	0
343.34799546399	-19.052385492896	0
347.86639712078	-21.306749084285	0
332.44066622941	-25.866570505767	0
331.52450997757	-25.650873015122	0
331.75543805194	-26.723521764444	0
332.96839617983	-23.980280207154	0
331.88423136108	-24.781121204831	0
333.22370725625	-24.931334333518	0
334.54274587168	-26.337090073084	0
348.37824841791	-19.954693469505	0
348.97717262232	-19.284064923524	0
343.87964211248	-16.305048663342	0
344.02122269338	-17.494228580989	0
344.5770577457	-16.833546828862	0
335.36702793844	-21.261729140618	0
334.35728045579	-20.613703982693	0
332.76716750013	-20.831752502658	0
331.97935942445	-22.7427623764	0
331.37603452391	-23.532723979393	0
330.45030150643	-23.147364895966	0
329.85375531869	-23.953352419898	0
329.62823670155	-24.971853382768	0
330.72649853393	-24.524773576581	0
333.28642636179	-26.745495841665	0
334	-30	0
332.89841818658	-28.629333215161	0
333	-30	0
335	-30	0
351.1273795905	-22.886616896716	0
349.71557672976	-13.62730617622	0
349.79927624224	-15.266743088145	0
350.74835931206	-13.720487022207	0
348.5970701767	-20.790999731451	0
344.3667220018	-18.290761620276	0
343.49995917222	-18.193526018748	0
339.89448278604	-18.879573750623	0
341.31155237406	-19.218968735785	0
344.92337033645	-17.624445414311	0
336.05068363238	-18.436618124115	0
335.86757826531	-19.371073030239	0
336.74969929197	-19.083232889388	0
331.77701714214	-20.558836602387	0
332.59541827209	-19.522254411682	0
331.6194112034	-19.298349428515	0
337.5749989037	-20.287490296183	0
337.55751687101	-18.626702264589	0
337.34493491814	-17.714790994284	0
329.46044245548	-22.987170320251	0
328.98001713547	-24.018429056599	0
330.77827746474	-26.224462347356	0
343.0048142347	-16.324415146777	0
336.62798969546	-20.003111265311	0
335.69751075461	-20.337636024226	0
332.70858064783	-21.925490941256	0
331.53111948511	-21.855563849241	0
329.84415997071	-25.927850793118	0
328.95499476284	-21.890591080509	0
328.62855296423	-24.954454290973	0
332.51290758714	-27.293603906812	0
330.15948975148	-21.806002538944	0
330.045090233	-26.914273864359	0
329.14845038392	-27.891882928412	0
330.87360921817	-21.047441701583	0
349.92047092515	-22.113625364204	0
350.84628384118	-15.532137452466	0
351.40174782903	-16.840228582855	0
346.91459909339	-17.475678412379	0
345.43954356407	-16.873185144727	0
341.9604159402	-16.112852819254	0
342.40979727961	-15.146631919165	0
343.76785714286	-14.975595238095	0
343.22758013134	-14.111040438175	0
336.09704691682	-15.119919281858	0
337.27778470988	-15.464703559456	0
336.71577863016	-14.370552244331	0
329.10049411687	-26.566219812261	0
330	-30	0
332	-30	0
329.50754699687	-20.476833484984	0
330.91122877749	-20.006304858785	0
329.51848443013	-19.265692592857	0
327.66598256562	-19.008729177056	0
326.46803021755	-20.198531267227	0
348.70195976579	-18.428079682461	0
346.71599330899	-16.341324629915	0
344.64764407248	-15.885677865779	0
344.98160547133	-14.682542506669	0
349.63137339717	-17.638210725982	0
348.78697584748	-15.643448532263	0
339.37208021104	-18.143939206744	0
338.6395644571	-19.049087909466	0
344.16260929477	-13.950514570436	0
335.32141449427	-15.70538852538	0
340.06553628742	-11.539787515711	0
340.81850540584	-12.101186450115	0
340.38375806882	-10.656121201605	0
333.90555425581	-18.246885988841	0
334.82969977222	-17.403419764475	0
336.42152784049	-17.559573016758	0
[...]
CELL_DATA 6713
SCALARS Coverage double 1
LOOKUP_TABLE default
0.2014047181457 0.25006330307973 -0.40386757291718 -0.32397536000946 -0.16598606059791 -0.62619061242431 -0.23802100185393 0.55251900743939 -0.64115299827188 -0.5664617065609 -0.069584969993201 -0.47201024790503 -0.37668151087193 -0.54187491808739 -0.2233764611607 -0.58697751546292 -0.51936555350816 -0.42394063827281 -0.36679572383236 -0.53331635290203 -0.54612164922486 -0.59972504220232 -0.44355919846045 -0.57175723297274 -0.62825688501707 -0.60330455550334 -0.54383000938616 -0.60321878705815 -0.63491443590861 -0.62244917076038 -0.54905767484998 -0.48545478200244 -0.56445951427036 -0.63413027232579 -0.57549708788005 -0.58488674888467 -0.57002669966186 -0.54082070258367 -0.57847421320862 -0.51945469347749 -0.48064927039493 -0.51554892125734 -0.49818263945126 -0.64140626685742 -0.50183732316665 -0.52024812411067 -0.43575973030787 -0.57944337228372 -0.55543214447704 -0.56541883659486 -0.51429387171305 -0.5417291677093 -0.47972047353315 -0.52055514533173 -0.49574701766578 -0.64735496427611 -0.60297100602091 -0.62929139731791 -0.63772178417977 -0.63911232520628 -0.50063851975477 -0.59451138577103 -0.53519993706731 -0.4383967103835 -0.4585133278442 -0.5587072884722 -0.59608101243098 -0.50506171186736 -0.63917032749014 -0.59512382643401 -0.48999287605652 -0.47690912773134 -0.46624079135499 -0.44502867067517 -0.46342372994277 -0.42302285005891 -0.51401664120805 -0.45569695169006 -0.39604862420373 -0.44196862550754 -0.41468710219771 -0.37114079859719 -0.34568509086232 -0.40914421198867 -0.39712798628433 -0.40586822407816 -0.37116484821713 -0.48604046872847 -0.45485150743922 -0.49967956830579 -0.372945124149 -0.59740941060365 -0.57887117646421 -0.50610189666737 -0.55301276898253 -0.5246952630924 -0.60215120526901 -0.55675952459236 -0.56620066713298 -0.5971714323725 -0.60628423612942 -0.63733202719018 -0.52319802751454 -0.57311646814123 -0.60866489068345 -0.47478026312189 -0.55823251034533 -0.42213482978036 -0.52624671715839 -0.44385864066018 -0.54131677879113 -0.52685298377401 -0.56107505887839 -0.51836777327303 -0.49713890515764 -0.49871353884433 -0.41394955894842 -0.4530389159259 -0.41595474084015 -0.39574894215933 -0.38129711884862 -0.32527193798524 -0.43496180238891 -0.43629221474513 -0.37709472794435 -0.43631573836459 -0.41786899387998 -0.47624238478426 -0.32323453222915 -0.33077164473389 -0.39753572176121 -0.438013461411 -0.47470282349714 -0.48079360418149 -0.26479579773239 -0.44640656284704 -0.39142097180186 -0.40980786500999 -0.44628637642882 -0.51301828367966 -0.33261639442735 -0.42139568326589 -0.4614032350135 -0.3933748999103 -0.43880928161995 -0.65578948861742 -0.41581814686697 -0.48916785740674 -0.4908847685717 -0.50061481089236 -0.56682456876565 -0.6217977115385 -0.49133624943039 -0.50296830064966 -0.55647202874666 -0.47964055860403 -0.21978197902946 -0.27748272875483 -0.31418017788214 -0.43722811042648 -0.52503097046993 -0.4825630816885 -0.54650453807904 -0.54519524917945 -0.55869996576355 -0.57813267170169 -0.5425880778385 -0.64317044363272 -0.48551548698558 -0.53201091874686 -0.41012057880622 -0.378676231603 -0.45534880649652 -0.41944287571687 -0.49074771681791 -0.47594036510792 -0.46666634389462 -0.44338059216972 -0.28501406302793 -0.36676834884573 -0.48490412740802 -0.60153661470432 -0.59910605328159 -0.59043200103109 -0.40118737381279 -0.33546077828374 -0.46437274543884 -0.40047727469728 -0.38459051668033 -0.37471378589785 -0.41440041436335 -0.37652010920023 -0.30475521572271 -0.34783514007099 -0.37712222035936 -0.39965720996557 -0.45331121596866 -0.43324824196647 -0.50885995686133 -0.62819175547992 -0.6162606183681 -0.64645288548208 -0.61523112240254 -0.55834368874587 -0.58423503465127 -0.62060864559485 -0.62419425860558 -0.33500821591198 -0.30740889466651 -0.45926749720433 -0.52058928249729 -0.43517387137686 -0.47725079012582 -0.55290551562443 -0.53446003315373 -0.5075412766896 -0.64921827945798 -0.58652853529927 -0.61784476597202 -0.56023782914079 -0.56314145313858 -0.53968524461913 -0.55961951993906 -0.52701706779274 -0.51619886710045 -0.50603356591478 -0.51113626397674 -0.55319782884406 -0.58481019609575 -0.59462189363143 -0.51048027273737 -0.34298797913862 -0.29836591045442 -0.3695896509111 -0.36880984245731 -0.56867696096649 -0.51157944900881 -0.33950167542925 -0.58688665914965 -0.3125327955125 -0.34730134421628 -0.34347076912029 -0.30080976888011 -0.21884294342615 -0.29233866154176 -0.2680632961774 -0.41118730484392 -0.48044881665387 -0.38626907156789 -0.38826177472687 -0.50813637520975 -0.55677251223398 -0.47309687198139 -0.51366403697609 -0.47199715639904 -0.50201688610236 -0.46689002281374 -0.51842887638483 -0.49972554255389 -0.55316772104583 -0.55029288758232 -0.54522997633559 -0.53911696497017 -0.62619584843181 -0.55520685191536 -0.58810059697275 -0.66823044251362 -0.65759013937355 -0.44202527679522 -0.089356672229234 -0.30589769525615 -0.32520139443175 -0.29416901211169 -0.30314183527656 -0.27223370997566 -0.2639369793998 -0.27628707752221 -0.35022679891601 -0.27642333286179 -0.23321164801206 -0.30678829827242 -0.35064019782223 -0.37266610956137 -0.28648735927468 -0.48379431260463 -0.51593735215928 -0.54627603496315 -0.54211142901516 -0.34182530694744 -0.66010480217549 -0.2716342279566 -0.22981415038356 -0.34864351695003 -0.32416489588035 -0.29486246500447 -0.35094721030398 -0.43318484809792 -0.49358152006943 -0.54547974829607 -0.45183730571677 -0.52050835949794 -0.54776652059827 -0.60352504606093 -0.49195309743664 -0.48393761477047 -0.46987977432396 -0.44348487844425 -0.44155357476759 -0.6184234957292 -0.40197229297945 -0.44723590668788 -0.39766804079779 -0.40901449274502 -0.66676186153745 -0.62789959581184 -0.65414953992591 -0.60162812099681 -0.58029706696691 -0.41224377895074 -0.20235665378992 -0.25429253217012 -0.24052786783437 -0.30186960055417 -0.30358629368479 -0.1873014153682 -0.13133571293829 -0.33848073926521 -0.15591752539969 -0.5344765315681 -0.56883745885911 -0.59503903597223 -0.59910641570328 -0.56915051943082 -0.67852135297944 -0.35622009554487 -0.36011590119199 -0.35549917836453 -0.40015754598211 -0.39778930421584 -0.34941990628569 -0.27191284864858 -0.25669471236083 -0.2843103457458 -0.23651448313067 -0.22214412998499 -0.25348338932679 -0.15152552556148 -0.25407345331942 -0.20393423332069 -0.21775756782922 -0.31504254368312 -0.34938263440478 -0.37030292499003 -0.30736947413248 -0.36940180360895 -0.35473097136507 -0.39523813395837 -0.36517578678264 -0.27953559077639 -0.33681355041928 -0.35824972799962 -0.31770743185996 -0.11605114507711 -0.21186615495553 -0.32697267195245 -0.2895875217012 0.16013025099935 -0.31134735422029 -0.27454082364005 -0.32105603274662 -0.25050043988929 -0.27637091525736 -0.28770544296528 -0.28790967436538 -0.39557211357857 -0.3738673623062 -0.35348375580346 -0.37675025658948 -0.34032931688692 -0.33845305662255 -0.31064274393423 -0.32154803802258 -0.40284966506582 -0.43088699749369 -0.14782109754824 -0.033037421306903 -0.19127704884775 -0.17412797866543 -0.26900301036909 -0.31596916409987 -0.30368914754752 -0.35260185077312 -0.29123597299119 -0.25853135758123 -0.31874505969227 -0.31988795417441 -0.25576904195026 -0.35106836850222 -0.38833725954003 -0.42837516001295 -0.17850176488302 -0.12760428575746 -0.17706137734514 -0.19953027324299 -0.1306268172713 -0.13748613610387 -0.1914155372833 -0.22539036180996 -0.24779698333238 -0.30322399045762 -0.32399694235556 -0.2896466361016 -0.26880835219093 -0.25191850439402 -0.24141598859802 -0.21657412543217 -0.16128198217034 -0.23399874885421 -0.04944865981112 -0.20171951942933 -0.17845809545708 -0.2836448061044 -0.41323800793708 -0.30897447212963 -0.30948611479668 -0.32919036847755 -0.17591433911639 0.16967600750217 -0.16164403054749 -0.18696382168484 -0.2454857256012 -0.24051509038114 -0.20880968012638 -0.2014509380928 -0.25081219685062 -0.26719944059619 -0.17871641425937 -0.21307599827461 -0.24598555009307 -0.26005531048878 -0.27877759848473 -0.25932703267854 -0.15370942876243 -0.26974536585311 -0.24476601493356 -0.26679955964382 -0.16147163078727 -0.18827576965874 -0.29281683518673 -0.28448894986365 -0.30789070710336 -0.33354727087191 -0.251569352377 -0.28338661370395 -0.098898750537195 0.020744391708565 -0.20014146046679 -0.13477642942432 -0.26415652188218 -0.23407771402481 0.015918695984241 0.18579664278979 -0.38580523990702 -0.29512231187437 -0.3027353146291 0.19656844929479 -0.064634197527798 -0.081265279779581 -0.19567795770965 -0.01527949595199 -0.29054229678382 -0.31815938435229 -0.25232819637862 -0.35438216869436 -0.22422858015524 -0.23328315609937 -0.13738105384357 -0.11081685642157 -0.12754883105604 -0.064381267341869 -0.092053674483091 -0.029712794535742 -0.16975151346154 -0.067411994325023 -0.084898583749546 -0.12414618880391 -0.21975456712221 -0.19709199613601 -0.25535943926323 -0.18956541734425 -0.24057790791908 -0.1667604534963 -0.093849743661389 0.34939025485648 0.025240305457436 -0.0052857451675261 0.25622954043668 -0.15037649832065 0.27726233832878 -0.18250131804274 -0.11576806005646 -0.19005598263699 -0.046416451885034 -0.21684554468522 -0.053939874022178 -0.10356816671663 0.310406465748 -0.14202494936233 -0.22689985419973 -0.23611795024845 0.1052115202083 0.2272851865183 -0.15633848731029 -0.2710570967901 -0.22969499713751 -0.2566542846087 -0.25319267046163 -0.24292096164605 -0.11889972887928 0.10230869116537 0.066018303412625 -0.15387114026196 -0.0073583735497777 0.018442146857649 -0.085511191229002 -0.027958955803609 -0.054469109749201 -0.040561776800217 0.26334962622027 -0.13730632186625 -0.20469212013003 -0.19537775701349 -0.30264829771873 -0.26750903216845 -0.31011225624883 -0.31748419802138 0.23463274223895 0.17667590307253 0.26663096128586 0.40940081431353 0.17320021279745 -0.0055595156331324 0.15295616716671 0.35940344297807 0.24491901861602 0.094017153409593 0.13897847557468 0.17921127181149 0.040212363729127 0.085759811563354 0.16260767320835 0.27177590836463 0.35826620248368 0.31751982459782 0.40774965547552 0.31765551477123 0.43214744898121 -0.20972054242808 0.46955193583104 -0.12488771305432 -0.077550236687112 -0.057548455885471 -0.095312402703244 0.081001318328949 0.24156462256483 0.036200489243475 0.34479825657152 0.37361144349617 -0.10684657703564 -0.027888078360186 -0.1408818147502 -0.083282717605466 0.07753376471032 0.11540719663757 -0.10639098365759 -0.066847895444246 0.072835445547798 -0.018993517706544 0.05311825602746 0.047544056127637 -0.024833684800886 0.0037404572017811 -0.029314691969551 0.095092020986515 0.078373197274892 0.033251391514685 -0.16565901660181 0.023052642679728 0.098144964128007 0.21812362173344 0.10116251330733 0.20736902117605 -0.19036848017427 -0.24837091201748 -0.074430586328995 -0.051345836194106 -0.25374429860832 -0.26732986829093 -0.20376622130586 -0.12481349291758 -0.23079965121741 -0.27938710926139 -0.23634808924774 -0.26565612713191 -0.30443476203838 -0.28560112641869 -0.15544100365005 -0.25628844455639 -0.30715741027736 -0.3452197134324 -0.26864449371166 -0.28724004896886 -0.3422957925581 -0.34002406590055 -0.17807910332765 -0.13858706157804 -0.20489807404891 -0.13772064533109 -0.1136104888711 -0.043550392853146 -0.018782563363786 -0.20805324147504 -0.17038613532543 -0.43808352696698 -0.28946694722415 -0.31288287114459 -0.05936506776899 -0.011069632405889 0.13667109852867 0.21392147428312 0.36022885621982 0.10214698542304 -0.27327201570965 -0.4945503539704 -0.0069320065558332 0.10240444996949 -0.19987960384974 -0.06655105772358 0.36561061124696 0.45841594158408 0.21045703967859 0.38613812304622 0.21234323160544 0.076171567061331 0.20609242234711 0.2815521520852 0.41245126100775 0.1166177408399 0.1437971311947 -0.067411203751446 0.18912679561662 0.011278549926005 0.31663162369855 -0.06107067746621 0.44975332763642 0.35276900993943 -0.16570097343126 -0.060727683956643 -0.24275333335397 -0.19918144071858 0.039933349225401 -0.046450479079649 0.30440828086618 0.39161178357067 0.18881175498133 0.33838470700493 0.41000545404583 0.4031426651246 0.16128053058138 0.17022866213579 0.24724854022634 0.43480457168383 0.091339908019471 0.1161585100439 0.19360206008765 0.38820223080668 0.0099586708063257 0.11964993133039 0.15988272764849 0.44622941878289 0.096406202989717 0.093823692579878 0.16011642534653 0.19422562798261 0.12378394386175 0.020134114583548 0.23408098064043 0.35689501319071 0.18610353116839 0.12762448683132 0.34481068036377 0.26291161851019 0.29400606206659 0.35720659461371 0.40558520777023 0.23395655906577 0.23080047027061 0.31261862277334 0.31154580196286 0.45410034332019 0.35050045614041 0.44180907028089 0.35772027302488 0.29564054686074 0.32188078936671 0.36876398508013 0.41601580155575 0.3317355895904 0.11999878934027 0.24520949790673 0.026000267755723 0.071369143059606 0.11561192911048 -0.12388587668358 0.19690666324213 0.13532832242035 0.019642510281225 -0.022828501263245 0.23853102358086 0.083135132739314 0.32545762571859 0.39700270511536 0.024213871196373 0.086609219562377 0.0034170735906135 0.0064913446243388 0.12932137222531 0.029896292940706 -0.05668589406808 0.024335933232278 0.2499292389903 0.22243935890107 0.48166091279336 0.4916972084777 -0.14044113428532 -0.15519393038224 0.27307055725857 0.16612024257025 0.032672838113858 0.2077088062019 0.25678349641376 0.29748533691288 0.38136808735734 0.32856986779972 0.38503646479568 0.44233222983796 0.25949348098003 0.4967375365847 0.21009543395101 0.28523403767565 0.27502635957877 0.3965403878519 0.45582445289041 0.47041181546544 -0.16848936224734 -0.035541506999392 -0.12858256864725 -0.085358911776807 -0.15644001169726 -0.18525683987081 -0.13976142139534 -0.21471731169191 -0.095477655629018 -0.3071936437497 0.42892149022722 0.405085508655 0.4239188137581 0.46909225377896 0.44058901441979 0.4646894827289 0.46815486597911 0.42365521179008 0.38694037644443 0.48394457632148 -0.21102025625042 0.4182260138603 0.4843796533558 -0.28299454044247 0.45688623147453 0.46759523055929 0.43340559641138 0.51875939201536 -0.17503514071586 -0.10051098866639 -0.21994598797367 -0.20102206542292 -0.034507457390856 0.11172156561845 0.46032337729202 -0.15170329564874 0.36902200598923 0.42736433801026 0.45334642334696 0.41582068969944 0.45863128047126 0.40365229250103 0.44587581509971 0.5113349827552 0.45654178770063 0.37222030368546 0.47336850689995 0.4031072390722 0.47436230667669 0.43853756295799 0.43221850454475 0.45508249762589 0.10624997283479 -0.10164782090149 0.41369826312113 0.22209708944595 0.048238748291448 -0.097749088034826 -0.27642288919774 0.45877922133176 0.40940269686377 0.12807521106525 0.093746080027837 0.24749218589266 -0.033743558922609 -0.21784943148649 -0.087552569595233 0.30992132614238 -0.31601984014195 -0.033312426922252 -0.25170156284373 -0.2183806188277 -0.18206923761055 -0.22955157751193 0.14267042271752 -0.1075125764233 0.24992252013482 0.34192973909523 0.31203440914898 0.31467662017242 0.43458606488583 0.0005797891726875 0.33983946029853 0.39463224549443 0.4586757968544 0.3561881827651 0.4642858609842 0.40394762668125 0.45135545732807 0.43211837755003 0.45448978452645 0.056460770184881 0.44484522774149 0.54974238049837 -0.013184850110839 0.46920846302206 0.034080274257362 0.15304595576996 0.0089503708302872 0.17814554665534 0.33929436537543 0.39693493196311 0.32303925258996 0.40143291924006 0.26919517341264 0.29860248483781 0.37795240046135 0.43524606586016 0.26878173916669 0.18039449052649 0.3644594057929 0.34645931633367 0.4587463226438 0.48457783205938 0.46908692906142 0.40508013139321 0.16585333793028 -0.02799518101421 0.41184543588561 0.41443736368248 0.13952207469944 0.07675046606458 0.48545174175147 0.5015761406495 0.074184956400755 0.020557190006501 0.071901640900154 -0.00019994265740751 -0.064009662942182 0.021825817778886 -0.10706280539375 -0.10460455706368 -0.11791082459932 -0.14137858655743 0.67421059674965 -0.16116769389932 0.41746253797346 -0.05984508448972 0.0051480364722998 -0.26670740767698 0.18055335361105 0.43059123245635 0.45354634559875 -0.18322504891134 0.44316003042978 0.42948654196285 0.38825291391517 0.6024982212988 0.40929579575459 1.3620610993227 0.43965469587079 -0.068595538221816 -0.099588284067242 -0.082876682864333 -0.17167244383831 -0.22069768778855 -0.15121451845197 -0.24317574964281 -0.2153804307814 0.45628674775222 0.51550669104328 -0.15096298317828 -0.21693531867618 -0.26600730967362 -0.3486911630252 0.45423141808726 0.86848033515898 0.42537479303702 0.44599066314388 0.45964754772331 0.44886260747614 0.50365438505994 0.45989395754314 0.51465718991119 1.6924899047004 -0.2249845465061 -0.26051655990296 -0.17607244164412 -0.22477528692989 0.47398700455845 0.51666176875205 0.47550304842815 0.47863714458413 0.43963653839078 0.46276818280353 0.42357929816453 0.45054501738093 0.48092288364294 0.50201496008029 0.45777531001446 0.42069938880364 -0.25747762293152 -0.30358107109933 -0.23170310337745 -0.24076330585255 -0.30411131873402 -0.45044626119426 -0.20137472083904 -0.3160767503801 0.50227620706767 0.43775864107834 0.47165079807622 0.40973814035304 0.50716588789692 0.39278270747499 0.50448047703387 0.60314547734015 -0.24555339035358 0.35602633891488 0.48014955836634 0.95969788462332 0.55687867425592 0.5176877386354 -0.31067015275715 0.58486709416652 0.47154844853578 0.66970813382484 0.4409566451032 0.42347573506692 1.3392732346037 0.6176913467728 0.43592727759419 0.42583327537046 0.48310354448052 0.55878539546037 -0.2040577181843 -0.25434956683077 -0.22731163426723 -0.26649016089399 -0.059035088154731 -0.29769435786044 0.47220245525122 0.50004557290176 0.43409253023472 0.45372600468728 0.3855719705863 0.42105793435307 0.49308477738663 0.42837083696482 0.46698407608188 0.42259411023143 0.34009989560404 0.43885595184398 0.42596342866183 0.46654490875399 0.43659446231856 0.4645062132874 0.44917816736015 -0.30358970645833 1.1490702993649 0.29950257017912 0.42484040712151 0.36002408832444 -0.28318183222881 0.8716175675039 -0.26418488491171 -0.24228337726825 -0.32806958209445 -0.22439743792195 -0.2762683393829 -0.30504243921756 -0.68335037083946 -0.19069354900069 -0.21885936996135 -0.087827862750584 -0.17455115815036 0.24499593711743 -0.20958004124442 0.44898566487125 0.43339729485254 -0.18435025838181 -0.27440636718962 -0.18053648582638 0.47754666149941 -0.11084669266698 0.23481481541504 0.33322832402271 0.44030078712298 0.42921699419576 0.15255496773934 0.11256117904592 0.2246903134822 0.2307702986304 0.50014215644817 1.5981208710863 0.52295313574033 0.86442820260714 0.80376272476594 0.77922418108079 -0.14335999220629 -0.24279764024812 0.43650138586279 0.46241254990654 0.74642220981619 0.44453837553944 0.44098750592678 0.40352180596209 0.46850762148718 0.42882287375816 0.48850833720785 0.44178434334395 1.2041861585846 0.42185221013768 0.5005491155659 0.15027453286849 1.0388997509354 1.2013331794029 1.6509026824533 0.33854271763782 -0.042188151602777 -0.18083794423784 -0.33239429074447 0.48080853314296 -0.022994151327767 0.39966355820073 0.42894906633868 -0.18874197478727 -0.14237391413729 -0.15647843303515 -0.11598464389443 -0.074100485035678 -0.0085017624781149 0.27409522110258 -0.052612327375556 0.21884740688051 -0.092612959950228 -0.080495126250495 -0.08939024137338 0.45048897951194 0.4289138181323 0.44948905269266 0.43393202331334 0.41856750062945 0.4728541125657 0.67766810064848 0.57400942968228 0.47068674845018 0.43980105404436 0.38501328993233 -0.014809139994735 0.39130130149112 0.40081643996102 -0.60545104258119 -0.63827996676192 -0.62316357456052 -0.63418779998822 -0.63901097103792 -0.62820911676877 -0.62763213847627 -0.64314155943861 -0.64597798014212 -0.6407503907624 -0.59872844821223 -0.66902285854559 -0.63293348045165 -0.56206051694293 -0.60755869336931 -0.53963954084243 -0.62437404979643 -0.60829749526451 -0.64159229486263 -0.64880461947476 -0.6566510634412 -0.66054141175185 -0.65271058284624 -0.54963469062813 -0.64751425778679 -0.62732044466626 -0.63296921344468 -0.66853707155237 -0.63767444694862 -0.58046561083139 -0.57749724890873 -0.57205648990682 -0.50239512164523 -0.4