# vtk DataFile Version 3.0
d-2__ created by libgimli-v1.5.0-1-g5991b6ac
ASCII
DATASET UNSTRUCTURED_GRID
POINTS 5650 double
48	0	0
48.5	-0.72383564313856	0
49	0	0
43.916468532993	-16.93817630311	0
44.813719915335	-16.684040559545	0
44.103865747123	-16.024651643668	0
0.5	-0.72383564313856	0
-0.13678534650528	-1.1637043844347	0
0.5	-1.6035731257308	0
44.714141549147	-17.421252672405	0
45.488861088791	-17.758485556354	0
45.402387047207	-17.138868613004	0
-1.0619847761962	-4.936349993843	0
0	-5	0
-0.33580381240029	-4.3503753830586	0
4	0	0
4.5	-0.79450420293268	0
5	0	0
49.5	-1.035639322046	0
49.5	-0.39712126985623	0
5.078125	-6.2527915044772	0
5.0837422256816	-7.1501377247586	0
5.7899146328518	-6.5964389586148	0
1.5	-0.39712126985623	0
1.5	-1.035639322046	0
2	0	0
1	0	0
2.5	-0.72383564313856	0
3.1789361770244	-0.65821172550344	0
3	0	0
71.007812310269	-6.9046973028969	0
70.703125	-5.6251101106048	0
70.362600246864	-6.3822624538041	0
8.6117732952021	-3.3687135862164	0
8.984375	-4.1885730546091	0
9.3915176531883	-3.5089409257858	0
59.058036759583	-16.379449372971	0
60.082540982335	-16.602693892561	0
59.842946141125	-15.684205328962	0
74.21875	-5.9020812572104	0
74.922069985054	-6.3996208644416	0
75.390625	-5.6766679889999	0
79.521882044071	-7.9126637486182	0
78.77671452237	-7.2157293020599	0
78.733292348102	-7.8990720455522	0
9.7022932466751	-9.3797630941979	0
9.4011036806802	-8.8258449701498	0
8.7301313767576	-9.4822248614299	0
7.5	-0.72383564313856	0
7	0	0
6.5	-0.87999123167934	0
8	0	0
24	0	0
24.5	-0.72383564313856	0
25	0	0
-0.98121341671352	-3.316317573615	0
-2.0883869552112	-3.6613622432107	0
-0.98131351071904	-4.006727928921	0
10.5	-0.72383564313856	0
11	0	0
10	0	0
92.10820705211	-10.814871289836	0
91.303242377859	-11.527638430795	0
92.494516646255	-11.37516960257	0
20.758090983271	-2.4076098338837	0
21.212774958083	-1.841377346957	0
20.5	-1.6035731257308	0
11.5	-1.035639322046	0
11.5	-0.39712126985623	0
14.950817063389	-3.6123730690161	0
14.456729904564	-2.6198684281298	0
13.950415199702	-3.4038011009942	0
61.5	-0.39712126985623	0
62	0	0
61	0	0
14	0	0
13.5	-0.87999123167934	0
14.5	-0.72383564313856	0
15	0	0
7.421875	-5.6178416201944	0
7.8125	-5	0
7.03125	-5	0
70.307049313576	-7.1105073672265	0
70.987462300086	-8.1313270440665	0
16.5	-0.79450420293268	0
16	0	0
15.636907794928	-1.1637043844347	0
49.380368342973	-14.403594260715	0
49.762452536326	-13.875377603959	0
48.702856302989	-13.563236546736	0
17.5	-0.86924456999677	0
17.842133546557	-1.4578468275696	0
18.451730491363	-0.78638761205352	0
17	0	0
86	0	0
86.5	-0.72383564313856	0
87	0	0
15.178936177024	-0.65821172550344	0
12	0	0
14.5	-1.6035731257308	0
73.552111145472	-12.150139251497	0
74.685574795544	-11.825008387948	0
73.635332236501	-11.455855550482	0
19.421876228847	-0.87845272147397	0
18.481117180167	-1.6928104359824	0
74	0	0
74.5	-0.72383564313856	0
75	0	0
47.5	-0.87999123167934	0
20.600660842622	-3.2810763673277	0
19.921875	-4.014206405412	0
20.703125	-4.2749229195371	0
20.5	-0.72383564313856	0
21	0	0
20	0	0
47.714873818087	-1.6358304326161	0
0	0	0
47.659091426356	-3.2587955255348	0
46.644063268882	-3.7676295932988	0
47.65625	-4.0980594759955	0
4.6875	-5	0
5.46875	-5	0
25.178936177024	-0.65821172550344	0
26	0	0
6.743622677804	-1.5960991182301	0
23.5	-0.87999123167934	0
23.793891749395	-1.5266265789032	0
4.8817697074875	-3.4124436668703	0
5.3480331527809	-2.7723842956063	0
4.6660535983522	-2.7509139105047	0
26.428358251672	-1.9770228288649	0
27.051878550646	-2.0419580111452	0
26.845584199524	-1.4499809999142	0
27	0	0
27.5	-0.72383564313856	0
28	0	0
28.178936177024	-0.65821172550344	0
9.5	-0.87999123167934	0
69.814512260285	-1.4981287529351	0
70.5	-0.72383564313856	0
69.5	-0.87999123167934	0
37.766438606046	-4.2420446360368	0
38.323318367536	-3.6629325607055	0
37.317228150182	-3.2527730110777	0
18.660876682739	-2.4485865433332	0
17.973891103907	-2.0858720306863	0
34.5	-0.72383564313856	0
33.5	-0.87999123167934	0
33.82089265562	-1.4893109599695	0
32	0	0
31	0	0
31.5	-0.72383564313856	0
63	0	0
62.5	-0.72383564313856	0
29	0	0
8.2591724084594	-0.57240813302758	0
8.4717521608692	-1.1637043844347	0
25.636907794928	-1.1637043844347	0
26.545908850676	-0.84827902524755	0
18	0	0
35	0	0
34	0	0
35.5	-1.035639322046	0
35.5	-0.39712126985623	0
8.59375	-5	0
8.2284843742807	-5.6954079513176	0
9.2120473878674	-5.7616053726018	0
88.86715199321	-1.5118713908803	0
88.545908850676	-0.84827902524755	0
88.240022049904	-1.3869160305262	0
39	0	0
38	0	0
38.5	-0.72383564313856	0
82.5	-1.6035731257308	0
82.787222661849	-0.81339272576872	0
81.859617859486	-0.9235091504576	0
39.178936177024	-0.65821172550344	0
40	0	0
73.5	-0.87999123167934	0
37.838881395377	-1.614016682557	0
37.5	-0.87999123167934	0
85.5	-0.87999123167934	0
46.586506244086	-15.544888464738	0
45.897004762753	-15.274502857094	0
46.242365614161	-16.066236831359	0
40.5	-0.79450420293268	0
41	0	0
42.336316025324	-0.77841763575814	0
42	0	0
41.5	-0.86924456999677	0
28.049909994444	-3.0971636398391	0
28.6201407176	-3.4158976952447	0
28.697344318677	-2.819200842756	0
47.082669887791	-2.7974079073529	0
47.718215066489	-2.4216118853314	0
55.29820719927	-1.2243985349803	0
55.462958025137	-0.53575875687739	0
54.708957913835	-0.71939852368266	0
46.5	-0.86613622554139	0
47	0	0
34.5	-1.6035731257308	0
43.383870027382	-0.99942956935236	0
43	0	0
30.193852140221	-1.685867763823	0
30.5	-0.87999123167934	0
29.5	-0.79450420293268	0
39.636907794928	-1.1637043844347	0
28.636907794928	-1.1637043844347	0
32.471752160869	-1.1637043844347	0
32.259172408459	-0.57240813302758	0
36	0	0
42.5	-1.6035731257308	0
43.150062298609	-1.6059943228901	0
99.216541783735	-0.93832625370525	0
100	0	0
99	0	0
50	0	0
51.36633623477	-10.430348179216	0
50.395739686466	-9.9127914651447	0
50.888950480693	-10.929453837339	0
53.125	-5	0
53.90625	-5	0
53.515625	-4.1909067796516	0
50.5	-0.72383564313856	0
51.178936177024	-0.65821172550344	0
51	0	0
59	0	0
58.5	-0.87999123167934	0
59.5	-0.72383564313856	0
53.809820284259	-0.82043874757067	0
53	0	0
52.97042001367	-0.88896063115205	0
52	0	0
57.8125	-5	0
58.59375	-5	0
58.203125	-4.1909067796516	0
59.685356368009	-2.3552730183094	0
60.184864531242	-1.8334000226725	0
59.5	-1.6035731257308	0
65.480446274744	-3.746956020991	0
65.397604712632	-4.3913727903498	0
66.015625	-4.1909067796516	0
55.688320335612	-1.7208360735363	0
56.052412511312	-0.92807366525783	0
62.191198962918	-17.629450334545	0
61.97033442114	-16.962653432129	0
61.488836385204	-17.638727419934	0
77.199748650767	-1.6833454461022	0
76.5	-0.79450420293268	0
76.335694148288	-1.6038411950301	0
89.5	-0.72383564313856	0
90.178936177024	-0.65821172550344	0
90	0	0
58.903203076339	-1.3755568411949	0
91.87779059209	-2.0374756078085	0
91.786472248634	-2.8418384889484	0
92.635076907602	-2.3235806946987	0
62.5	-1.6035731257308	0
61.5	-1.035639322046	0
60	0	0
88.428358251672	-1.977022828865	0
87.81210337459	-2.4859126529652	0
88.680915705612	-2.8441222012867	0
57.617409684993	-2.9989451531129	0
57.253248317521	-2.0382232162578	0
56.792848679262	-2.5141559481461	0
85.15625	-4.1239752993306	0
84.375	-5	0
85.15625	-5	0
55.070237772446	-1.8497253048321	0
72.854994751535	-4.3409935425948	0
73.542544478095	-4.3083690016643	0
73.15889432348	-3.7233900797355	0
97	0	0
96.5	-0.87999123167934	0
97.5	-0.72383564313856	0
78.092176686462	-7.4396929522299	0
76.91668548428	-7.4346980603148	0
77.122160183609	-8.1036752558685	0
63.5	-1.035639322046	0
63.5	-0.39712126985623	0
95.871660588887	-2.4317661613153	0
95.317788310629	-1.799119616642	0
95.074187220393	-2.603901984705	0
100.34287652722	-4.2057949291262	0
99.609375	-3.7472084955228	0
100	-5	0
64	0	0
64.5	-0.87991483452332	0
70	0	0
71	0	0
60.266756516738	-0.56662133718525	0
60.455729037659	-1.1637043844347	0
89.111390760283	-11.520208777499	0
89.123888571056	-12.24082576047	0
90.273201693507	-11.860476115499	0
50.5	-1.6035731257308	0
49.830637201342	-1.6178149192666	0
49.165318600671	-1.6106940224987	0
49.5	-2.1999905164872	0
65	0	0
69.329268142548	-3.2667956254483	0
69.53125	-4.1056296801845	0
70.183751368423	-3.3330207081993	0
48.5	-1.6035731257308	0
67.5	-0.72383564313856	0
68.471752160869	-1.1637043844347	0
68.259172408459	-0.57240813302758	0
45	0	0
45.5	-0.86602541087424	0
46	0	0
75	-5	0
75.78125	-5	0
75.116419049585	-4.2286559063481	0
67	0	0
68	0	0
85.892944639815	-1.3897341397271	0
52.066263321	-3.3496835719921	0
52.04402323882	-2.5274719722249	0
51.459997217796	-2.9546759362968	0
82.616732108533	-10.571859929582	0
82.504036062846	-9.731842418482	0
82.028947408824	-10.592521143928	0
3.6369077949277	-1.1637043844347	0
74.5	-1.6035731257308	0
75.178936177024	-0.65821172550344	0
1.165318600671	-1.6106940224987	0
1.830637201342	-1.6178149192666	0
-3.1957427306939	-3.746065592173	0
-4	-4	0
-3.5737577401904	-4.5	0
76	0	0
0.390625	-4.2662473623192	0
0.78125	-5	0
1.1039939358816	-3.8395324864973	0
81.507225003929	-4.3893767286684	0
80.99571266894	-3.9682109497972	0
81.25	-5	0
77	0	0
75.636907794928	-1.1637043844347	0
-0.5	-0.53111975661513	0
80.5	-0.58353536918725	0
79.680179395983	-0.78001624166945	0
80.230032816598	-1.2656914333177	0
-1.5	-0.97161533064078	0
-1	0	0
-0.36088003840433	-3.619390120191	0
-0.40137781331295	-2.9415414514279	0
85.05246832565	-1.9827909224857	0
85.622324529685	-1.9736931093967	0
85.276387636588	-1.4586926438499	0
23	0	0
87.178936177024	-0.65821172550344	0
82	0	0
10.5	-1.6035731257308	0
81	0	0
81.26790429128	-0.61245813749155	0
6.0204421994995	-2.8882426746132	0
6.7707844722078	-2.9859158936402	0
6.4701916893529	-2.2915114273357	0
80.961273195714	-1.2064741732161	0
22	0	0
22.5	-0.86613622554139	0
87.636907794928	-1.1637043844347	0
88	0	0
89	0	0
21.255720702965	-0.57418292844855	0
21.473765574904	-1.1637043844347	0
91.097802297013	-0.66901283862594	0
91	0	0
94	0	0
93.564806735869	-0.59390246129104	0
94.688715155011	-0.78267772273653	0
90.182846344996	-1.6793034683712	0
90.948031569968	-2.1986944251589	0
90.636907794928	-1.1637043844347	0
25.079198979612	-1.4114110573738	0
24.5	-1.6035731257308	0
[...]
CELL_DATA 10997
SCALARS Coverage double 1
LOOKUP_TABLE default
1.574779354822 -0.75372303256683 0.72980030759441 -0.79824375907928 -0.052953273882742 1.5889919810611 1.2384938436903 -0.13701238721566 1.1313673437967 1.5908126526251 1.2513137345713 -0.10933254516337 0.59980853260865 1.6119621114668 -0.73531342020139 1.5571069864445 -0.054763379381113 -0.16020666592781 -0.37273781272479 1.1769270830662 1.5330542097477 1.5837638473448 -0.10177587657485 1.5916125561806 -0.56812731251343 0.83867995969366 1.1801033008708 0.65694958893819 1.5900735642667 0.97511999092193 1.4583639196315 0.025613863302772 -0.18065961356613 1.0025460702252 -0.62623472385878 1.0426315480859 1.5148261954034 1.4756790067927 1.5464757962994 1.6769698179389 0.96617460967003 -0.40777121919163 1.0626612658351 1.5923960845374 1.0891007850115 0.61686858196176 1.5320087683406 1.0546372673619 1.2953125287993 0.6040882244838 0.086997891632873 1.5738883574563 1.2583643264001 1.1219038491172 1.0497774399235 0.64163187541537 0.87815987814086 1.5223259151884 1.0077395944152 1.0104612077146 1.0255396807773 0.62061783176598 0.83734180816149 1.0469431813321 1.6359209659074 1.5806540514319 1.5299025004129 0.99301796593958 1.0952532056056 1.0337628152734 1.5974691250933 1.5410698814049 1.2260315746342 -0.019122438912461 0.89319286844151 1.5710049481547 1.0339462263833 1.6037216303806 1.254630211563 1.0248902890202 1.0476547269759 0.99078206711049 -0.70740249869785 1.5980069065885 1.0160001470389 0.69074973821924 1.0691317500185 0.69520455373874 1.0392371924906 1.1703588096625 1.216116930476 0.98932684210844 1.1514697489615 1.0127376539506 1.0932106109389 1.1601877444249 1.0237952556491 1.2119844473037 1.5159716339687 0.92109370245923 1.2527723164306 1.5039742157136 -0.48507243776368 0.57110045139126 1.2260950462025 1.2859482181234 1.2230692491978 1.5977331051125 0.60951569150772 1.4800369120813 0.87514938803856 0.60109001254843 0.96388268257438 -0.80449794644227 0.91235284840451 1.0478728009837 1.138318635497 0.73653655329791 0.99710760078013 1.6398011181314 0.75416627738516 0.72772460463997 0.54425039839263 0.88210675772612 0.59299220641587 1.216768382606 -0.14949970138817 1.243132564236 0.75708978089528 0.10675157888493 1.0759237650241 1.5352023596458 1.5609829374608 1.0592898873995 -0.53934385264314 0.91109010797068 0.84520733074624 1.500186559238 0.65131521817898 0.95925733157186 0.96914560501935 1.036854082559 1.5887742260071 0.52280451095216 1.0642970275339 1.5761470006214 1.6354795975497 1.5422417615435 0.9594866604397 0.69272789521396 -0.33929566791149 1.049929783443 1.0272975869325 1.2667343433135 0.79913043096693 -0.28238140715657 1.5745856403286 0.23691884755437 0.53248255820759 1.5951547006396 0.82260766602856 1.1213710359083 0.89273341773913 0.52404741540068 1.0263976471246 0.013542544709381 0.64879334447394 0.076960630317151 0.83565219187268 1.5872803768764 1.267516067856 1.1292999757729 1.0359789315556 1.6263896890889 0.66270355211801 1.0124551285407 0.01742132743072 1.4999453697751 1.0181651403392 1.6238025487794 1.1957048184974 1.1258457583341 1.3120136118462 1.3469154732724 0.94922761907209 0.87379685591627 0.92909455653622 1.6377227724294 0.77249628017338 1.6160893098693 1.6194299162903 1.5590084499392 0.8752710400694 1.5904833188068 1.5972154316477 1.2576379661959 0.89225844139501 0.88995872491055 0.93736553366238 1.0247169034394 1.0233781219677 0.94636850998309 1.590609313021 1.1302282117814 0.83064109217259 0.82769669611642 1.3345647488678 0.8886032664984 0.95071422679632 -0.14208472620038 0.5684072571346 1.0490851055174 1.0992072116242 1.4538039532071 1.1397832907855 1.2396437012964 0.86491464621757 -0.026144221790523 1.2354546115585 0.92979322506066 1.4123043206944 -0.093200416686991 1.2258770420478 1.447399353826 1.0106634763824 1.5677734986988 0.88294928624173 0.68244215416022 1.0983664105855 1.1549730464244 1.3814711394717 1.5787543111326 1.1095941555607 1.5033371219033 1.2133579002694 0.61243500347019 1.0690016705691 0.87857959478929 1.3449371288872 1.2602465870653 0.78830446998014 1.238286094612 0.98679524862365 1.5822007253323 0.98391295757667 0.73604065831774 1.1244958781438 0.82916517339017 0.81705910483043 0.90490084574343 1.2033583769461 -0.2496150161429 1.5070465539034 0.85549210224227 0.98178717074663 1.5222890915549 0.96487136791662 1.3425227926481 0.86995890157339 1.5840397850447 1.0851077017515 1.2343375171312 0.87439005407757 0.87838077854541 1.0369188655127 0.86624937249658 1.367749371778 1.2428023303706 1.0858004528664 1.5249741501061 1.0052168427791 1.1842705201379 1.1398678066792 0.85062926538211 1.192813751664 1.3121109081675 0.62576159406509 1.0502442751666 0.60520070734305 0.5667663297195 1.2201483009994 1.2671438456734 1.1630646765638 0.52115464387267 1.1868717747228 1.052458489283 1.2448400278748 1.2397565093496 0.92603619245586 1.5391017165577 0.96476828383013 0.88607481603818 0.76335813083612 0.75054647917267 0.54838391889175 1.0671936759061 1.1936036148739 0.93906949430531 0.52015422389983 0.64164198818078 0.48759212455523 0.7483631141085 0.97890434609749 1.5985027358975 0.8857370881212 1.2716121393166 0.80152299537712 1.0736995389876 1.0468439802842 0.59441599684413 1.2548830049823 1.1582630358918 1.1302781506174 1.2673756499673 0.99557791360232 0.61537576708454 0.60997652740166 0.79064237113284 0.6175345152265 1.1725423368897 1.0642114198851 0.047912818996308 0.95862515272316 0.79482150083669 1.3819625655173 1.244385026961 0.93992500770395 0.46157110012906 0.80587032713791 1.4742660605298 0.60796769460634 0.96997933285372 1.4810497909393 0.95376700581825 0.69872888289126 1.2436190347066 1.3648905108972 0.95940495179812 1.0518936912375 1.1082979234832 1.325269991451 1.0252581996248 0.90676345330673 0.72080021649151 1.2947673931146 1.0291835621271 1.6524258719183 1.0441879396799 1.0932037458181 1.2140609495044 0.62453601095961 0.82375377806576 1.33393017669 0.98697010634786 0.57664266160251 0.62675760212094 0.85606411209503 1.0678335904092 0.95226439901778 0.90279378279129 0.89878704448757 0.85373486527842 0.79619226592236 0.91060481608622 1.2458020653144 0.69445347405045 0.69117159613832 0.86183503314398 0.66711666108097 1.0454075280461 -0.047347935617363 0.89953356306643 0.71729510273023 0.66556856306716 0.8013171828119 0.62776890260058 0.75936250275348 0.5386376747533 0.78392910058998 0.58719285398868 0.70988622053753 0.67371856210064 0.72356135277661 0.69444313075162 0.77413844919113 0.62538136918102 0.82850381687048 0.90723095282433 0.59218901687983 0.53044593204111 0.82165639888175 0.94638320950143 0.77404612502003 0.76710205345771 0.9046702027403 1.6006271822288 0.56903756261314 1.0420502831279 0.65038237730101 0.60038682895806 0.84939425360501 0.71011672754341 0.92317538777691 1.5263288589285 1.023618524036 1.0432243076414 -0.13264387033506 1.0112275266097 1.1264888745587 0.56730919260939 1.494180664558 -0.051722694443397 0.883511607749 1.5052355513351 0.98940912203983 1.4477048129152 0.63446134592299 1.0894334963828 0.89967513495919 0.82103235316626 0.65563618412397 0.8155176823154 0.74209719456489 0.90887459862821 0.73198235131805 0.71371614744116 0.88868422941464 -0.16205893838873 0.88563379067216 0.82418425471866 0.76698791112315 0.68632650609251 0.64466406506953 0.54588334885245 -0.0073140133663852 0.71466702968432 0.55405078044732 0.64669666140499 0.60787943931786 -0.017961110362285 0.54218214183861 0.58272917151474 0.58031327068479 0.5388959726 0.64425207093319 0.53433895574192 -0.15640721441513 0.61116032486675 -0.0081173004964332 0.53472380233331 0.58945322477352 0.59102621665326 0.70540086104177 0.74562855192157 0.86803645825275 0.63348711398849 0.62666114876132 0.72138667051983 0.57787490148516 0.56276519379831 0.66561926162705 0.60159344486283 0.62916514081939 0.56907833540357 0.77934744738407 0.72806372409382 0.93515138795097 0.81339933205665 0.69419348062408 0.77288272397761 0.88539650398524 0.70608847575165 0.68387301023331 0.68007911399659 1.1257253245086 0.84689445542351 0.76889854199995 0.88869579523218 0.97041351587056 0.72322824326234 0.66092280332215 0.58014611319778 0.78688191877976 0.60349088313512 -0.10597108187729 -0.037303588259016 0.5666924079423 0.65439840783182 -0.017776611535903 -0.084162220066963 -0.17167028197594 -0.22286468234671 -0.08109695464575 0.028644625552772 -0.11196313811275 -0.22830800782913 -0.11865943106071 -0.010102578788855 -0.26165931775058 -0.051771876364662 -0.042005105187808 -0.19500159988478 -0.01238323826493 -0.18653871531436 -0.16454662506355 -0.096896024202478 -0.14487902270687 -0.076677317736514 -0.069607893361429 -0.087967775265142 -0.15913699635944 -0.032559476860743 -0.076600690885154 -0.08996993110675 -0.20587882989032 -0.13535258015254 -0.17361182188593 -0.21816118896203 -0.22913638612914 -0.08276913098648 -0.19873037682871 -0.32796925592139 -0.25974627771669 -0.24121849851459 -0.11734766843748 -0.038459413391494 -0.14161317348219 -0.28679939366453 0.60459400468553 -0.14951568586665 -0.076296333538403 -0.057436548137512 0.58555722505422 -0.16370279784184 -0.10873876171174 -0.031999632388401 -0.1565305681234 -0.10334099776912 -0.30042909470586 -0.23032921412147 -0.25021282957953 -0.21467459704763 -0.18292955118263 0.53394255371719 -0.10372246919203 -0.10445972398335 -0.44346556727416 -0.19380940170137 -0.2351470001856 -0.19985066800119 -0.1180676392367 -0.16393990786558 -0.028373978105368 -0.018629375584559 -0.030961249690578 0.59789331895158 0.028023106810539 -0.076017562490274 0.62185018645417 0.5884532179528 0.64550129527574 0.72257013848777 0.64560282533033 0.92637626825547 -0.035427830713858 0.57899575007222 -0.2402567211672 -0.065545619596662 -0.31356281432879 -0.18679605676231 -0.18632349097051 -0.12300989302449 -0.13513222988955 0.012186194909615 -0.13437065117734 -0.04468972361068 -0.41424264658138 -0.20096178474529 -0.014793579617166 -0.23932702924341 -0.2604650451864 -0.35489205568602 -0.21517122903087 0.0046329943563302 -0.066664540270591 -0.14912904860696 -0.22200911297871 -0.27666687490973 -0.11695613167151 -0.14539302313626 -0.092457685925915 -0.34634190859368 -0.35175742073619 -0.11409992369229 0.55544418193866 0.56090855227143 0.61800088698512 -0.067957502512893 -0.27747964138391 -0.19507199226266 -0.28511875503727 -0.35907262611345 -0.30085193892428 -0.27806998797352 -0.39473708991314 -0.31070672045339 -0.37584604894676 -0.38847137056827 -0.23927324454265 -0.52532996952878 -0.14124746748591 -0.2532720407664 -0.30812146264434 -0.44353116127066 -0.15787590582911 -0.32439839723727 -0.36946567679047 -0.35029211267469 -0.36494911856724 -0.44058186133191 -0.03673838802767 -0.26689544892983 -0.30239627571974 -0.020680135027353 -0.37155390358193 -0.41673550176165 -0.48395483132935 -0.33043797567557 -0.4182959910301 -0.44901873801323 -0.36926769315536 -0.39325532135151 -0.12444670873115 -0.17368171050219 -0.12419174276771 -0.067671983667712 0.5938285967149 -0.42106001069787 -0.3861428789687 -0.010172167200372 -0.093937680482547 -0.39451887399372 -0.45389486580547 -0.22544703938586 -0.27684655502317 -0.34349689694815 -0.20597824060961 -0.28821825508457 -0.46749994475051 -0.36277987415569 -0.47943937835104 -0.39411416509249 -0.42499012954834 -0.17675000953186 -0.2470615067584 -0.27901866811094 -0.237400847918 -0.2476356555001 -0.28852368269424 -0.31164513515823 -0.35453897378931 -0.23058516525793 -0.34229507672979 -0.38749797575362 -0.51008347644349 -0.094975976017919 -0.19869103100722 -0.096149272687221 -0.11445164186119 -0.29934941451951 -0.30753304047297 -0.19935214971192 -0.1995121586702 -0.28529866785056 -0.28023756939487 -0.32290838958051 -0.27197730239812 -0.5068300380645 -0.48172985297728 -0.24060359222577 -0.32942883945188 -0.25241866852156 -0.27306216528266 -0.33969604083471 -0.30755736648532 -0.26916639501404 -0.28594282257334 -0.36846881938917 -0.37267700492716 -0.30591284993676 -0.33623916886591 -0.41252574216343 -0.43023642758117 -0.44198757960509 -0.5942525655395 -0.081764451732639 0.57847441959346 -0.079734878000513 -0.11399172743015 1.0758998732293 0.5802796719901 0.61805374964917 0.63253022798136 -0.24707188539448 -0.3603232974575 -0.24624961417034 -0.28214360360253 -0.68503464689531 -0.69488367473681 -0.29109633832183 -0.17322129939323 -0.30794279253691 -0.37944319189652 -0.32494385479838 -0.35030268030025 -0.36971756942652 -0.35773445830882 -0.37367828983857 -0.43610216555992 -0.39757669683173 -0.35623085733617 -0.33314436702123 -0.41342780651588 -0.6734453936636 -0.54942307848917 -0.47562978310024 -0.55844874762285 -0.37833388689465 -0.45362639372895 -0.41777661309007 -0.4635475620899 -0.43661270791372 -0.46055602072925 -0.54269063796621 -0.5092450743993 -0.38844357978404 -0.56902215822134 -0.33504890913942 -0.36148961258989 -0.54572587412554 -0.55070586585834 -0.59028162972196 -0.61196575470542 -0.55399178032417 -0.58752676767767 -0.52717816061469 -0.59053650257666 -0.48552362041574 -0.52228702676131 -0.56006348194339 -0.61472529744944 -0.47608705551301 -0.4959491460609 -0.48606528893415 -0.50737760995204 -0.56663712142488 -0.53354137222849 -0.63504423861464 -0.60884448983024 -0.58899495001653 -0.46036623127384 -0.69251080967404 -0.39245591781773 -0.71454942550196 -0.43445883384355 0.74446875525197 0.87109424710197 -0.2985663963438 -0.23683965621765 -0.29842549210837 -0.26084612720191 -0.2216281142517 -0.2003845689291 -0.32575172751057 -0.16596317885202 -0.25588328075521 -0.080181287303309 -0.18800508218248 -0.20464242670068 -0.33993973752636 -0.32732553512539 -0.24265681744099 -0.22366732640711 -0.3319856001391 -0.3108027719073 -0.26889830119358 -0.26625927902369 -0.37893108185246 -0.41889236405268 -0.43775166417675 -0.36773126062206 -0.40403296585364 -0.39904356243116 -0.6662879123164 -0.46261859200922 -0.40732618547161 -0.38155831637137 -0.41731933740735 -0.28022006117367 -0.3731874935782 -0.32090119174041 -0.30474413812722 -0.33483702885653 -0.6159531082712 -0.73695127674565 -0.51509048178732 -0.4083415492537 -0.6818920697165 -0.65296466870522 0.66974774694029 0.64504294283566 0.79729942186115 0.9235737822781 0.62263755368856 0.5929518304782 0.67429229973906 -0.16055470211226 0.87888161869679 0.72310198582965 0.59531771090975 0.62122080734957 0.97795492361353 0.95410015596426 0.74323146999384 0.81041439006975 0.60885554148084 -0.060315610010566 -0.10100903396396 -0.68313808762069 -0.098058888623975 -0.16865159917906 -0.16327041104032 -0.22064608261119 -0.20169812563881 -0.30466513628699 -0.4895347944663 -0.46122653302008 -0.34442283242848 -0.2878501348744 -0.3714673103835 -0.37482655558708 -0.38578739765949 -0.3468788855621 -0.12361130755802 -0.40852224844781 -0.52800838866366 -0.60745981879707 -0.57249349680748 -0.56510312442799 -0.7224124870712 -0.70339324208344 -0.64352395119388 -0.63428492230853 -0.69858368602502 -0.67265087972219 -0.67349034065114 -0.75036634833567 -0.66087663558775 -0.58063961311029 -0.67117587524104 -0.75199730917351 -0.69085204098661 -0.63596568140123 -0.67272971976103 -0.68929165546016 -0.63373969147665 -0.66109277463101 -0.72922517918474 -0.76951967117591 -0.76728092421061 -0.72361447939735 -0.78840083049669 -0.77048120223119 -0.5398517616305 -0.71163582309912 -0.44592706460682 -0.49071962144905 -0.53312758636401 -0.62368572433408 -0.64362390774433 -0.62419191906389 -0.68772647607284 -0.78060014003383 -0.21980291266101 -0.15353879725236 -0.28392889998575 -0.2040359946564 -0.17467345418217 -0.058449922838686 -0.40925140896538 -0.43530639691814 -0.4300971071952 -0.43975045881865 -0.46493564186138 -0.43409186671927 -0.329178427228 -0.27806862629941 -0.38779572368756 -0.33613930753736 -0.41741640446782 -0.40269549552991 -0.40005265549554 -0.41421578389746 -0.44462929320306 -0.47196681124012 -0.4563013659292 -0.64858697454619 -0.45645704664176 -0.54949648491381 -0.46657881214551 -0.43520749233287 -0.53693009422086 -0.51277953885339 -0.57327755465738 -0.56295909629466 -0.56943857776508 -0.45693472212119 -0.69463877831013 -0.48884541906339 -0.64570080625563 -0.76921649933228 -0.73925965955171 -0.80557707191713 -0.38229927132283 -0.39339475299755 -0.37073671727931 -0.34006577915208 -0.52187666741914 -0.51670833915172 -0.40915657945034 -0.44932760070034 -0.46564868858339 -0.50406523136794 -0.49674077905512 -0.49833287434592 -0.52915692352852 -0.565074141803 -0.67627680935547 -0.55284593599997 -0.56168517454659 -0.37063524535108 -0.61324494774139 -0.60016477318561 -0.67227373457032 -0.61884764073149 -0.7414406024528 -0.62534854853577 -0.68833371663515 -0.67936280247616 -0.73303975939335 -0.71585263049181 -0.80505667922843 -0.72459091970539 -0.77219017082712 -0.5056772456955 -0.77245532756269 -0.78048024411563 -0.73973016558319 -0.52937818256193 -0.64308426240148 -0.77255418556997 -0.60007635209466 -0.6723950803413 -0.74247271926167 -0.70059045731722 -0.62785856750194 -0.65867566144991 -0.58597569072613 -0.59982566832565 -0.52964487371025 -0.55573195366303 -0.4790681569866 -0.59810153781015 -0.53179881331823 -0.56381175004756 -0.58128240208382 -0.81213756140284 -0.37192067182135 -0.65412158639055 -0.74679928479417 -0.78418838792603 -0.70857177488593 -0.76613717889912 -0.83505696039176 -0.81446812436667 -0.68927928030996 -0.72511973867237 -0.78497247484225 -0.82863480642513 -0.7911604036594 -0.87776432402116 -0.95234320469603 -0.83087985311228 -0.53958325281153 -0.55256939973331 -0.5154671976105 -0.48790162167017 -0.5951728284509 -0.61749519350664 -0.52999125862757 -0.27474066820596 -0.49645116392268 -0.57357582991396 -0.49003242390101 -0.50803675562929 -0.50195056143138 -0.4974831428537 -0.5233846040019 -0.53167730963516 -0.53219404548555 -0.68069163797372 -0.57914154737501 -0.46171428385238 -0.54989998240697 -0.7103058617753 -0.58682792913525 -0.55360417181635 -0.62738684662803 -0.59821280811374 -0.51716577226413 -0.56177092948636 -0.83101890376895 -0.61362205798963 -0.53977563261805 -0.5615776781025 -0.58005052985212 -0.82402200860814 -0.55747101389469 -0.621089460922 -0.50190837174369 -0.79740890926645 -0.72012451912869 -0.76667177054961 -0.87108945849432 -0.89547796073649 -0.78092838378996 -0.85611096941166 -0.40416203927925 -0.45032693453191 -0.37807525497996 -0.40582043088377 -0.37466561230998 -0.30678140949196 -0.40998041662831 -0.48048668894872 -0.31241136252853 -0.26095801198143 -0.93302158056368 -0.64000385903029 -0.56332027270242 -0.36494048394299 -0.637677513303 -0.59143396636305 -0.78305684043373 -0.74461455591409 -0.88033221795217 -0.71363431497832 -0.60788653075518 -0.60219711856467 -1.1210332086791 -0.97658791167269 -0.82443764761577 -0.8493715596931 -0.81579282976291 -0.83740408313959 -0.071951574464634 -0.80708682508039 -0.4416376094323 -0.44802317156267 -0.57554405904316 -0.63028917025277 -0.61249406886415 -0.64478426387754 -0.72135810810292 -0.70038712922986 -0.53892512787169 -0.46873922470747 -0.66001083983743 -0.71552496468833 -0.6353707875952 -0.64432271028458 -0.62189423208729 -0.60517354736764 -0.66244293414362 -0.57751288277253 -0.68830172275091 -0.60462997086125 -0.61836156814641 -0.62441291630076 -0.64506041452458 -0.59489943622485 -0.58913581508544 -0.53009464267618 -0.56879484683889 -0.53171013928501 -0.57504243797627 -0.57134133576865 -0.55758722100958 -0.48738523301742 -0.5571374355411 -0.5412027224761 -0.55758097059856 -0.52998234160249 -0.54004557981373 -0.58335137549461 -0.51399264556772 -0.54377598146429 -0.50757841618105 -0.42004291963809 -0.48764429095817 -0.47581735376043 -0.58540537791407 -0.54094702265 -0.67004099425719 -0.77295949344005 -0.63470615623579 -0.66617131216141 -0.68747756838527 -0.66761981027826 -0.70268729411147 -0.67236475795431 -0.74032896782477 -0.73015849860005 -0.73773572199179 -0.92687384894245 -0.13522797126451 -0.44482674224481 -0.4685495124692 -0.40453275247977 -0.49989193500841 -0.43359220302874 -0.39688098133857 -0.36558979228166 -0.49336924741478 -0.45143602334767 -0.52920770425531 -0.39102124813519 -0.39972894099955 -0.37634438903481 -0.32989346890965 -0.36991790923216 -0.32557160510398 -0.32161722206116 -0.34441072290919 -0.43891721996474 0.57179096941144 -0.36134638041166 -0.40510350449239 -0.37562841227554 -0.53244804709083 