# vtk DataFile Version 3.0
d-2__ created by libgimli-v1.5.0-1-g5991b6ac
ASCII
DATASET UNSTRUCTURED_GRID
POINTS 5650 double
48	0	0
48.5	-0.72383564313856	0
49	0	0
43.916468532993	-16.93817630311	0
44.813719915335	-16.684040559545	0
44.103865747123	-16.024651643668	0
0.5	-0.72383564313856	0
-0.13678534650528	-1.1637043844347	0
0.5	-1.6035731257308	0
44.714141549147	-17.421252672405	0
45.488861088791	-17.758485556354	0
45.402387047207	-17.138868613004	0
-1.0619847761962	-4.936349993843	0
0	-5	0
-0.33580381240029	-4.3503753830586	0
4	0	0
4.5	-0.79450420293268	0
5	0	0
49.5	-1.035639322046	0
49.5	-0.39712126985623	0
5.078125	-6.2527915044772	0
5.0837422256816	-7.1501377247586	0
5.7899146328518	-6.5964389586148	0
1.5	-0.39712126985623	0
1.5	-1.035639322046	0
2	0	0
1	0	0
2.5	-0.72383564313856	0
3.1789361770244	-0.65821172550344	0
3	0	0
71.007812310269	-6.9046973028969	0
70.703125	-5.6251101106048	0
70.362600246864	-6.3822624538041	0
8.6117732952021	-3.3687135862164	0
8.984375	-4.1885730546091	0
9.3915176531883	-3.5089409257858	0
59.058036759583	-16.379449372971	0
60.082540982335	-16.602693892561	0
59.842946141125	-15.684205328962	0
74.21875	-5.9020812572104	0
74.922069985054	-6.3996208644416	0
75.390625	-5.6766679889999	0
79.521882044071	-7.9126637486182	0
78.77671452237	-7.2157293020599	0
78.733292348102	-7.8990720455522	0
9.7022932466751	-9.3797630941979	0
9.4011036806802	-8.8258449701498	0
8.7301313767576	-9.4822248614299	0
7.5	-0.72383564313856	0
7	0	0
6.5	-0.87999123167934	0
8	0	0
24	0	0
24.5	-0.72383564313856	0
25	0	0
-0.98121341671352	-3.316317573615	0
-2.0883869552112	-3.6613622432107	0
-0.98131351071904	-4.006727928921	0
10.5	-0.72383564313856	0
11	0	0
10	0	0
92.10820705211	-10.814871289836	0
91.303242377859	-11.527638430795	0
92.494516646255	-11.37516960257	0
20.758090983271	-2.4076098338837	0
21.212774958083	-1.841377346957	0
20.5	-1.6035731257308	0
11.5	-1.035639322046	0
11.5	-0.39712126985623	0
14.950817063389	-3.6123730690161	0
14.456729904564	-2.6198684281298	0
13.950415199702	-3.4038011009942	0
61.5	-0.39712126985623	0
62	0	0
61	0	0
14	0	0
13.5	-0.87999123167934	0
14.5	-0.72383564313856	0
15	0	0
7.421875	-5.6178416201944	0
7.8125	-5	0
7.03125	-5	0
70.307049313576	-7.1105073672265	0
70.987462300086	-8.1313270440665	0
16.5	-0.79450420293268	0
16	0	0
15.636907794928	-1.1637043844347	0
49.380368342973	-14.403594260715	0
49.762452536326	-13.875377603959	0
48.702856302989	-13.563236546736	0
17.5	-0.86924456999677	0
17.842133546557	-1.4578468275696	0
18.451730491363	-0.78638761205352	0
17	0	0
86	0	0
86.5	-0.72383564313856	0
87	0	0
15.178936177024	-0.65821172550344	0
12	0	0
14.5	-1.6035731257308	0
73.552111145472	-12.150139251497	0
74.685574795544	-11.825008387948	0
73.635332236501	-11.455855550482	0
19.421876228847	-0.87845272147397	0
18.481117180167	-1.6928104359824	0
74	0	0
74.5	-0.72383564313856	0
75	0	0
47.5	-0.87999123167934	0
20.600660842622	-3.2810763673277	0
19.921875	-4.014206405412	0
20.703125	-4.2749229195371	0
20.5	-0.72383564313856	0
21	0	0
20	0	0
47.714873818087	-1.6358304326161	0
0	0	0
47.659091426356	-3.2587955255348	0
46.644063268882	-3.7676295932988	0
47.65625	-4.0980594759955	0
4.6875	-5	0
5.46875	-5	0
25.178936177024	-0.65821172550344	0
26	0	0
6.743622677804	-1.5960991182301	0
23.5	-0.87999123167934	0
23.793891749395	-1.5266265789032	0
4.8817697074875	-3.4124436668703	0
5.3480331527809	-2.7723842956063	0
4.6660535983522	-2.7509139105047	0
26.428358251672	-1.9770228288649	0
27.051878550646	-2.0419580111452	0
26.845584199524	-1.4499809999142	0
27	0	0
27.5	-0.72383564313856	0
28	0	0
28.178936177024	-0.65821172550344	0
9.5	-0.87999123167934	0
69.814512260285	-1.4981287529351	0
70.5	-0.72383564313856	0
69.5	-0.87999123167934	0
37.766438606046	-4.2420446360368	0
38.323318367536	-3.6629325607055	0
37.317228150182	-3.2527730110777	0
18.660876682739	-2.4485865433332	0
17.973891103907	-2.0858720306863	0
34.5	-0.72383564313856	0
33.5	-0.87999123167934	0
33.82089265562	-1.4893109599695	0
32	0	0
31	0	0
31.5	-0.72383564313856	0
63	0	0
62.5	-0.72383564313856	0
29	0	0
8.2591724084594	-0.57240813302758	0
8.4717521608692	-1.1637043844347	0
25.636907794928	-1.1637043844347	0
26.545908850676	-0.84827902524755	0
18	0	0
35	0	0
34	0	0
35.5	-1.035639322046	0
35.5	-0.39712126985623	0
8.59375	-5	0
8.2284843742807	-5.6954079513176	0
9.2120473878674	-5.7616053726018	0
88.86715199321	-1.5118713908803	0
88.545908850676	-0.84827902524755	0
88.240022049904	-1.3869160305262	0
39	0	0
38	0	0
38.5	-0.72383564313856	0
82.5	-1.6035731257308	0
82.787222661849	-0.81339272576872	0
81.859617859486	-0.9235091504576	0
39.178936177024	-0.65821172550344	0
40	0	0
73.5	-0.87999123167934	0
37.838881395377	-1.614016682557	0
37.5	-0.87999123167934	0
85.5	-0.87999123167934	0
46.586506244086	-15.544888464738	0
45.897004762753	-15.274502857094	0
46.242365614161	-16.066236831359	0
40.5	-0.79450420293268	0
41	0	0
42.336316025324	-0.77841763575814	0
42	0	0
41.5	-0.86924456999677	0
28.049909994444	-3.0971636398391	0
28.6201407176	-3.4158976952447	0
28.697344318677	-2.819200842756	0
47.082669887791	-2.7974079073529	0
47.718215066489	-2.4216118853314	0
55.29820719927	-1.2243985349803	0
55.462958025137	-0.53575875687739	0
54.708957913835	-0.71939852368266	0
46.5	-0.86613622554139	0
47	0	0
34.5	-1.6035731257308	0
43.383870027382	-0.99942956935236	0
43	0	0
30.193852140221	-1.685867763823	0
30.5	-0.87999123167934	0
29.5	-0.79450420293268	0
39.636907794928	-1.1637043844347	0
28.636907794928	-1.1637043844347	0
32.471752160869	-1.1637043844347	0
32.259172408459	-0.57240813302758	0
36	0	0
42.5	-1.6035731257308	0
43.150062298609	-1.6059943228901	0
99.216541783735	-0.93832625370525	0
100	0	0
99	0	0
50	0	0
51.36633623477	-10.430348179216	0
50.395739686466	-9.9127914651447	0
50.888950480693	-10.929453837339	0
53.125	-5	0
53.90625	-5	0
53.515625	-4.1909067796516	0
50.5	-0.72383564313856	0
51.178936177024	-0.65821172550344	0
51	0	0
59	0	0
58.5	-0.87999123167934	0
59.5	-0.72383564313856	0
53.809820284259	-0.82043874757067	0
53	0	0
52.97042001367	-0.88896063115205	0
52	0	0
57.8125	-5	0
58.59375	-5	0
58.203125	-4.1909067796516	0
59.685356368009	-2.3552730183094	0
60.184864531242	-1.8334000226725	0
59.5	-1.6035731257308	0
65.480446274744	-3.746956020991	0
65.397604712632	-4.3913727903498	0
66.015625	-4.1909067796516	0
55.688320335612	-1.7208360735363	0
56.052412511312	-0.92807366525783	0
62.191198962918	-17.629450334545	0
61.97033442114	-16.962653432129	0
61.488836385204	-17.638727419934	0
77.199748650767	-1.6833454461022	0
76.5	-0.79450420293268	0
76.335694148288	-1.6038411950301	0
89.5	-0.72383564313856	0
90.178936177024	-0.65821172550344	0
90	0	0
58.903203076339	-1.3755568411949	0
91.87779059209	-2.0374756078085	0
91.786472248634	-2.8418384889484	0
92.635076907602	-2.3235806946987	0
62.5	-1.6035731257308	0
61.5	-1.035639322046	0
60	0	0
88.428358251672	-1.977022828865	0
87.81210337459	-2.4859126529652	0
88.680915705612	-2.8441222012867	0
57.617409684993	-2.9989451531129	0
57.253248317521	-2.0382232162578	0
56.792848679262	-2.5141559481461	0
85.15625	-4.1239752993306	0
84.375	-5	0
85.15625	-5	0
55.070237772446	-1.8497253048321	0
72.854994751535	-4.3409935425948	0
73.542544478095	-4.3083690016643	0
73.15889432348	-3.7233900797355	0
97	0	0
96.5	-0.87999123167934	0
97.5	-0.72383564313856	0
78.092176686462	-7.4396929522299	0
76.91668548428	-7.4346980603148	0
77.122160183609	-8.1036752558685	0
63.5	-1.035639322046	0
63.5	-0.39712126985623	0
95.871660588887	-2.4317661613153	0
95.317788310629	-1.799119616642	0
95.074187220393	-2.603901984705	0
100.34287652722	-4.2057949291262	0
99.609375	-3.7472084955228	0
100	-5	0
64	0	0
64.5	-0.87991483452332	0
70	0	0
71	0	0
60.266756516738	-0.56662133718525	0
60.455729037659	-1.1637043844347	0
89.111390760283	-11.520208777499	0
89.123888571056	-12.24082576047	0
90.273201693507	-11.860476115499	0
50.5	-1.6035731257308	0
49.830637201342	-1.6178149192666	0
49.165318600671	-1.6106940224987	0
49.5	-2.1999905164872	0
65	0	0
69.329268142548	-3.2667956254483	0
69.53125	-4.1056296801845	0
70.183751368423	-3.3330207081993	0
48.5	-1.6035731257308	0
67.5	-0.72383564313856	0
68.471752160869	-1.1637043844347	0
68.259172408459	-0.57240813302758	0
45	0	0
45.5	-0.86602541087424	0
46	0	0
75	-5	0
75.78125	-5	0
75.116419049585	-4.2286559063481	0
67	0	0
68	0	0
85.892944639815	-1.3897341397271	0
52.066263321	-3.3496835719921	0
52.04402323882	-2.5274719722249	0
51.459997217796	-2.9546759362968	0
82.616732108533	-10.571859929582	0
82.504036062846	-9.731842418482	0
82.028947408824	-10.592521143928	0
3.6369077949277	-1.1637043844347	0
74.5	-1.6035731257308	0
75.178936177024	-0.65821172550344	0
1.165318600671	-1.6106940224987	0
1.830637201342	-1.6178149192666	0
-3.1957427306939	-3.746065592173	0
-4	-4	0
-3.5737577401904	-4.5	0
76	0	0
0.390625	-4.2662473623192	0
0.78125	-5	0
1.1039939358816	-3.8395324864973	0
81.507225003929	-4.3893767286684	0
80.99571266894	-3.9682109497972	0
81.25	-5	0
77	0	0
75.636907794928	-1.1637043844347	0
-0.5	-0.53111975661513	0
80.5	-0.58353536918725	0
79.680179395983	-0.78001624166945	0
80.230032816598	-1.2656914333177	0
-1.5	-0.97161533064078	0
-1	0	0
-0.36088003840433	-3.619390120191	0
-0.40137781331295	-2.9415414514279	0
85.05246832565	-1.9827909224857	0
85.622324529685	-1.9736931093967	0
85.276387636588	-1.4586926438499	0
23	0	0
87.178936177024	-0.65821172550344	0
82	0	0
10.5	-1.6035731257308	0
81	0	0
81.26790429128	-0.61245813749155	0
6.0204421994995	-2.8882426746132	0
6.7707844722078	-2.9859158936402	0
6.4701916893529	-2.2915114273357	0
80.961273195714	-1.2064741732161	0
22	0	0
22.5	-0.86613622554139	0
87.636907794928	-1.1637043844347	0
88	0	0
89	0	0
21.255720702965	-0.57418292844855	0
21.473765574904	-1.1637043844347	0
91.097802297013	-0.66901283862594	0
91	0	0
94	0	0
93.564806735869	-0.59390246129104	0
94.688715155011	-0.78267772273653	0
90.182846344996	-1.6793034683712	0
90.948031569968	-2.1986944251589	0
90.636907794928	-1.1637043844347	0
25.079198979612	-1.4114110573738	0
24.5	-1.6035731257308	0
[...]
CELL_DATA 10997
SCALARS Coverage double 1
LOOKUP_TABLE default
1.5746121300717 -0.75376266953703 0.72926619536567 -0.79832840176332 -0.054078110826892 1.5891104176256 1.2386151572551 -0.13715846962174 1.1313912410965 1.5910636282432 1.251169111994 -0.1095470024253 0.59961551425417 1.6123178190018 -0.73532115776073 1.5571534602994 -0.054779374662842 -0.16015102664151 -0.37301658834643 1.1766016717309 1.5329776842893 1.5837550807697 -0.10267762225695 1.5914088424059 -0.56864265286068 0.83867015896823 1.1799049646103 0.65688480685661 1.5900092713575 0.97514653984488 1.4584461910548 0.025875171640622 -0.18091253028001 1.0025381944263 -0.62618778185355 1.0428442378225 1.5147552906748 1.4759534292076 1.5463846690848 1.6768000126334 0.96620450386876 -0.40787172711317 1.0624940828089 1.5925525950081 1.0890316002448 0.61690635088655 1.5324362885603 1.0548811774565 1.2950068430146 0.60439016387552 0.086986087879982 1.5734125509365 1.2585005522728 1.1218867052599 1.04965258858 0.64145350156912 0.87797421123225 1.5221536972597 1.0076683715085 1.0102748311687 1.0256222233635 0.62102287107218 0.83723302161802 1.0470643482592 1.6358797331836 1.5807036901504 1.530026522802 0.99296665517165 1.0956203250419 1.0339810365795 1.5973715000935 1.5413733695315 1.2259398410202 -0.01879164443498 0.89320843821508 1.5709139065485 1.033882507447 1.603605779907 1.254563474493 1.0247754762395 1.0477223184989 0.9907840023469 -0.70727521605166 1.5979951371942 1.0161743628572 0.69089873487245 1.0689781030919 0.6951310468153 1.0392568713913 1.1701269135266 1.2159937134672 0.98922808381034 1.1514759809547 1.0124602153815 1.0937224270505 1.1602781792966 1.0237509083044 1.2118983311643 1.5161897404966 0.92096440305544 1.2524108855965 1.503873150767 -0.48555635340057 0.57134946904372 1.2259222092411 1.2861146101598 1.2229752772435 1.5977498497537 0.60944962694852 1.4800549048604 0.87496968335566 0.60106354322118 0.96394142044755 -0.80458600380974 0.91239156444052 1.0479652470671 1.1383768307464 0.73651259144545 0.99707636504837 1.6399663292377 0.7541303643167 0.72766312991503 0.54440045126826 0.88220962729485 0.59298846847519 1.2168660238453 -0.14948165785585 1.2431281686253 0.75691338947659 0.10593385492053 1.0765105530953 1.5351709083246 1.5608882904804 1.0595150472823 -0.53987491415566 0.91127848845364 0.84524339348377 1.5000768137561 0.6512815264025 0.95935362445443 0.96935398727848 1.0367928247469 1.5888680972597 0.52310856850084 1.064062222431 1.5760685883575 1.6356724257791 1.5422203696105 0.95958647458216 0.69290132184837 -0.33939670463796 1.0501835641956 1.0273273317269 1.2669589862797 0.79923293456491 -0.28304922884054 1.5746034544288 0.23612408518116 0.53257436573399 1.5947737578263 0.82249551632838 1.1214660626208 0.8930434762264 0.52254839511769 1.0262527503766 0.013521324566552 0.64794008335196 0.076150820688255 0.83554487854877 1.5870027637138 1.2675564105764 1.1286232200663 1.0358895528244 1.6260134753853 0.66255669350889 1.0122656735046 0.016576826254469 1.5000877978106 1.0181442155454 1.6237940951881 1.1955682352755 1.125939805605 1.3119203010681 1.346815930069 0.94922857573515 0.87390595140456 0.92926752527652 1.6376343982484 0.77228379710519 1.6160165774873 1.6193199143046 1.5589699652739 0.87511254919222 1.5906548786732 1.597279509287 1.2574398022763 0.89184167108244 0.88982375636795 0.93752378993033 1.0244607264779 1.0229938431904 0.94618992847432 1.5906745579012 1.1305515223962 0.83056961432304 0.82780503990599 1.3346701124619 0.88834030974358 0.95062008728086 -0.14235221301285 0.56860835331678 1.0493556550306 1.099120175078 1.4539850490702 1.1395364321745 1.2395269259924 0.86495756072997 -0.025932015023842 1.2352043967514 0.92971509730056 1.4122257037723 -0.093224888025086 1.2259165371605 1.4475520496145 1.0105343446599 1.5680623353365 0.88292822704174 0.68246153075302 1.0982976592821 1.1547990536575 1.3813871682422 1.5791378794442 1.1095346865349 1.5031564976074 1.2131702299849 0.61245083635375 1.0691950528977 0.87848925050679 1.3446997797705 1.2601937280171 0.78846022605198 1.2383661548632 0.98676495467654 1.5821240744694 0.983806716119 0.7360939389081 1.1245359796906 0.82901147293618 0.81697730260588 0.90481309191943 1.2034670170368 -0.25032935206087 1.507296657314 0.85524555466766 0.98171186268201 1.5223634024007 0.9646333574529 1.342642813431 0.87000275225211 1.5840009066934 1.085369331561 1.234270526786 0.87400842753041 0.87813491813092 1.0370541685677 0.86649250717572 1.3680841011201 1.2429135357015 1.0860921364284 1.5249814175486 1.0052586039835 1.1842344276699 1.1398772234758 0.85031113717819 1.1930991062115 1.3120470438355 0.62597023437662 1.0502028654397 0.6055807113268 0.56666965196926 1.2200636757885 1.2671072229671 1.1631447980231 0.52139436929565 1.1868053196252 1.0522997392672 1.2447331502715 1.2397561493474 0.92613514285528 1.5392127672754 0.96475765662771 0.88610125329283 0.76337948334294 0.75047665946333 0.54832741223891 1.0672224065886 1.1937598044564 0.93898842562222 0.51991387748933 0.64145348155656 0.48689685960563 0.74817486757501 0.97886458058951 1.5987398955026 0.88549638631231 1.271579934665 0.80131699022965 1.0737557581717 1.0469400445928 0.59467943739104 1.2547319620833 1.1584429072716 1.1305676424288 1.2673215201703 0.99571447558894 0.61551394822204 0.60966328814321 0.79063077117415 0.61791969176947 1.1730914439154 1.0640896291277 0.047752385948613 0.95870862391565 0.79464350827155 1.3820519244845 1.244283379684 0.93990729688495 0.46131243176378 0.80575530967764 1.4739844103195 0.60711608612109 0.96992893917093 1.4811974282203 0.95349806906758 0.69852584804626 1.2435339729724 1.3646857049279 0.95945459732423 1.0520198462315 1.1080738078078 1.3251044804259 1.0251929808069 0.90690736251946 0.72075913939632 1.294764956137 1.0292601973092 1.6523843895517 1.0445238870834 1.0934766445523 1.2144783920574 0.62438910995788 0.82378931151128 1.3340728801589 0.98700546575839 0.5767988342059 0.62692631234898 0.85620452451029 1.067855191575 0.95232461849625 0.90293406325288 0.89887455859021 0.85363174855668 0.79612563840844 0.91057675254295 1.2457450741048 0.6942846140888 0.69112864824956 0.86180589364773 0.66703244668393 1.0453820793301 -0.047193985922082 0.89950438702282 0.71725409808712 0.66552355595224 0.8012968711193 0.62769156026079 0.75927471402707 0.53897314161967 0.78388288216302 0.58717011666672 0.7097906746808 0.67363432560295 0.72354078772901 0.69448144002034 0.77418046179614 0.62529262374263 0.82856165118455 0.90729429013906 0.59215631393982 0.53072351951136 0.82151540590569 0.94642529682579 0.77388476018081 0.766963019047 0.9045099264412 1.6006932228053 0.56910755616869 1.0422694844487 0.65039906717352 0.60037338192226 0.84939184666609 0.71000413775442 0.9231515613703 1.5264825262915 1.0236487117813 1.0430933425891 -0.13262242843005 1.0112009519692 1.1265926650898 0.56747765382288 1.4941207081211 -0.051651811052907 0.88334220346114 1.5053641603684 0.98927887640922 1.447380166936 0.63451153583488 1.0893386768198 0.89949074091591 0.82099855500891 0.65596645933825 0.81544584367776 0.74205812949786 0.908949310531 0.73205785595211 0.7137717562271 0.88867795181125 -0.16250012084248 0.88563344719677 0.82406397392392 0.76705270515418 0.68642211081352 0.64465725020589 0.54589796125859 -0.007355004397398 0.71479375270621 0.55421833996376 0.64670643128701 0.60783706832139 -0.0181680522432 0.54229491321346 0.58284560731432 0.58033961290818 0.53911084339074 0.64428425010451 0.53454629301471 -0.15637728211681 0.61121464409206 -0.008150224556978 0.53501803723712 0.58933890933702 0.59102522172548 0.70537339385781 0.74585929384771 0.86813977908529 0.633659147932 0.62674952057966 0.72143778505913 0.57785880145539 0.56294082945383 0.66567945823279 0.60172931696057 0.62911292759054 0.569300703038 0.77928950528524 0.72803717850343 0.93528056741028 0.81357864747793 0.69427920264198 0.77279467930493 0.88558159262277 0.70604658353136 0.68418829394376 0.68028785088065 1.1256916290371 0.84676844954514 0.76897777063442 0.88855332336608 0.97047132497999 0.72345466156353 0.66101360941978 0.5803377316318 0.78699605152703 0.6035217869162 -0.10611173640208 -0.037523073193567 0.56676672141207 0.65460102914706 -0.01784682728718 -0.084287818411948 -0.17191707511836 -0.22292278635986 -0.081123642277416 0.028688330041078 -0.1119534486648 -0.22857972298124 -0.11871904994708 -0.010001847036063 -0.26164124412999 -0.051819497892299 -0.042025933752296 -0.1950720512078 -0.012521133671497 -0.18670497406569 -0.16480979050744 -0.096824013459551 -0.14516530131466 -0.076697075457569 -0.06968524680384 -0.08801532214722 -0.15916122018316 -0.032578729932877 -0.076612864951817 -0.090131078711478 -0.20586291131529 -0.13538693811608 -0.17370939147675 -0.2181386950829 -0.22908078260544 -0.082759303543474 -0.19870361879026 -0.32799356807769 -0.25985499082894 -0.24130241080663 -0.11730777344996 -0.038564020021004 -0.14162751286024 -0.2868385769908 0.60483461644376 -0.14962209394346 -0.076474084546384 -0.057427124118182 0.58566142276328 -0.16369737300959 -0.10875046311995 -0.032402045334676 -0.15700548745634 -0.10337227025503 -0.30048737636919 -0.23039029816129 -0.25027616654695 -0.21482805454441 -0.18307121085855 0.53420071524529 -0.10400378709136 -0.1045006357876 -0.44343947670387 -0.19420925547732 -0.23514930850069 -0.19991236807 -0.11810387786265 -0.1639720760799 -0.028391074257703 -0.018965199403951 -0.031082119408078 0.59825897218062 0.027967525794156 -0.076242558220116 0.6220376406457 0.58859479607529 0.64572224029904 0.72264307687466 0.6455263136257 0.92651763415898 -0.035596057428604 0.57890697411496 -0.24023638351639 -0.065993640725287 -0.31362906600957 -0.1867486048372 -0.18660500521793 -0.12311982846361 -0.13511961517119 0.012137438297296 -0.13482041535404 -0.045048962401478 -0.41429821649857 -0.20117502229297 -0.014818470468384 -0.23937427340593 -0.26052487766249 -0.35496023198806 -0.21522845462275 0.0046036057671575 -0.067064585465981 -0.14923414912683 -0.22213809887304 -0.27659682367044 -0.11690438109168 -0.14545186037507 -0.092496702701727 -0.34642099820048 -0.35186723475174 -0.11447488007679 0.55556240279127 0.56087553065277 0.61791273751808 -0.067995268861462 -0.27749127698004 -0.19506459382641 -0.28510307142941 -0.35902369694726 -0.30084797552279 -0.27811622689854 -0.39481466578912 -0.31077275305506 -0.37592806647354 -0.38850982065625 -0.23922061980918 -0.52535715148779 -0.14162563169123 -0.25330707490703 -0.30814319687905 -0.44359541621369 -0.15795449501764 -0.32447742476855 -0.3695311021815 -0.35033664640453 -0.36503635974722 -0.44061161359135 -0.036762957132097 -0.26686679039218 -0.30244477056871 -0.020714384386795 -0.37159440857758 -0.41679480496651 -0.48401433358008 -0.33044737659459 -0.41850179576294 -0.44945344932909 -0.36929390487805 -0.39327467780705 -0.1245288943082 -0.17402066212287 -0.12451064947095 -0.067600173928581 0.59386415039253 -0.42115731216903 -0.38621596858218 -0.010126044661941 -0.094278833092011 -0.39456660282608 -0.45394072089936 -0.22576603618386 -0.27697512430409 -0.343477288733 -0.20600199675594 -0.28824912338165 -0.46753576878806 -0.36278628372097 -0.47949569813661 -0.39418266283874 -0.4249978560408 -0.17683981319428 -0.24708537827303 -0.27904516739359 -0.23743822970391 -0.24788183013595 -0.28861051390614 -0.31163628579694 -0.35459551457329 -0.23073748360504 -0.34236475229908 -0.38744042266497 -0.51009762944558 -0.095462193326421 -0.19907113830397 -0.096773331871948 -0.11494626397324 -0.29962143733452 -0.30765169951277 -0.19942470841807 -0.19960231559003 -0.28537670684523 -0.28033934859981 -0.32291780486985 -0.27195014692764 -0.50686729414179 -0.48186847634278 -0.24074515262282 -0.32947633630785 -0.25257484148918 -0.27317547109292 -0.33971181408699 -0.30752810899632 -0.2692070450574 -0.28598356930842 -0.36845322214969 -0.37267490227377 -0.30594240411204 -0.33624521019866 -0.41258314118917 -0.43023474701785 -0.44192913991874 -0.59431057029063 -0.082254740167196 0.57876403293061 -0.080386612619729 -0.11460538778797 1.075998226342 0.58045787981113 0.61783299866544 0.63280787620906 -0.24724434157469 -0.36044171704262 -0.24659055377802 -0.28238765677446 -0.68493699713562 -0.69494483316524 -0.29110352171517 -0.17318195878801 -0.30794057857778 -0.37955077140298 -0.32497394741872 -0.35036451382097 -0.36991519763369 -0.35788963976734 -0.373784236643 -0.43620872762996 -0.39759546880923 -0.35629311016821 -0.33322869753656 -0.41336222958968 -0.67347634626476 -0.54939970141767 -0.47562337563605 -0.55845624233538 -0.37839717234686 -0.45362368623567 -0.41777931673723 -0.46351710338487 -0.43667141751626 -0.46054831528317 -0.54268987830545 -0.50925536856193 -0.38856338465463 -0.56907083714109 -0.33526444345084 -0.36166426114535 -0.54572823887788 -0.55074305278001 -0.59029313026607 -0.61207310848657 -0.55403741480071 -0.58764565196449 -0.52718465458196 -0.5905755266945 -0.48555427314002 -0.52227021929262 -0.56004103638326 -0.61477353898598 -0.47607020893535 -0.49592413618953 -0.4860284369889 -0.507330388252 -0.56666345004554 -0.53361424040357 -0.63514999099595 -0.60894047323222 -0.58919245100904 -0.46044726687532 -0.69270438974632 -0.39257655349273 -0.71482244015807 -0.43477553395693 0.74418482870292 0.87082740649434 -0.29859122486813 -0.23680407547341 -0.29844238458453 -0.26083451365971 -0.22161494357654 -0.2003665850754 -0.3258365661657 -0.16591229688422 -0.25586965785108 -0.080048614217622 -0.18800979977314 -0.20461254566099 -0.34001857396092 -0.32742372482914 -0.24262689898232 -0.22363094276077 -0.33207084603022 -0.31086021482721 -0.26889671089857 -0.26621914198707 -0.37912744245781 -0.41908072018004 -0.43809200205575 -0.36792282790495 -0.40426801933353 -0.39931190594211 -0.66667332707563 -0.46301344435737 -0.40760436293469 -0.38173196501102 -0.41757558094973 -0.28017357286256 -0.373348761869 -0.32096281306152 -0.30491654477673 -0.33504901752288 -0.61591234148365 -0.73722578266849 -0.51521321293213 -0.40846404101474 -0.68225116876021 -0.65316429254851 0.6695231377822 0.6448488732985 0.79727043496116 0.9236287743759 0.62324964068691 0.59323233204273 0.67422890159811 -0.16111594466446 0.8788825937193 0.72310435824805 0.59575509962003 0.62164619271743 0.977836938729 0.95374288638269 0.7431755625531 0.81036271733276 0.60929883587927 -0.060597824195441 -0.10173524587882 -0.68304429052228 -0.098560570174535 -0.16918333922298 -0.16383275542367 -0.22103589693869 -0.20166095314067 -0.30471363090168 -0.48966505847662 -0.4613941551909 -0.34453336426004 -0.28786242816411 -0.37165061661212 -0.37502749819956 -0.385887694935 -0.3469362322048 -0.12430176419821 -0.40856857942667 -0.52800252550329 -0.60749331913355 -0.57243767522322 -0.56507700607572 -0.72265739355313 -0.70368653699899 -0.64376171946036 -0.63458370386593 -0.69884284796484 -0.67293987703346 -0.673593648879 -0.75070988837594 -0.66118404145318 -0.58092394147208 -0.67140137430494 -0.75231196287401 -0.69114775362792 -0.63633621125955 -0.67290896526014 -0.68949262413494 -0.63384453118122 -0.6612207764806 -0.72946791971251 -0.76983628216209 -0.76755445422532 -0.72395844241332 -0.78879263548341 -0.77095968389491 -0.54041331859778 -0.71199143480724 -0.44628923638711 -0.49098426264953 -0.5332983515033 -0.62393893937267 -0.64372118650726 -0.62423529163778 -0.68780846241888 -0.78089660843512 -0.21975784031328 -0.15350834411504 -0.28394807699946 -0.20395481222751 -0.17461212611644 -0.058386486419726 -0.40935961153919 -0.43548653368398 -0.43022682180922 -0.43992600400978 -0.46519445300241 -0.4343872166808 -0.32925527770145 -0.27807032080373 -0.38800187707854 -0.33621839911105 -0.41770322879196 -0.40298959192819 -0.40026230182711 -0.41455749548569 -0.44495350299557 -0.47233443529412 -0.45658075431542 -0.64900697373999 -0.45680373636748 -0.55010186945957 -0.46699928454529 -0.43561649198414 -0.53701733967642 -0.51296603568987 -0.57340821633178 -0.56317042303854 -0.56976461732288 -0.45710704210936 -0.6951197547931 -0.48917400159821 -0.64569257740953 -0.76936045754455 -0.73943254917759 -0.80594288228436 -0.38243050609461 -0.39354405236898 -0.37090275645867 -0.34012460854268 -0.5221883927812 -0.51712087343002 -0.4093550785014 -0.4495871792809 -0.46589292534373 -0.50438822711595 -0.49699645574069 -0.49863665634864 -0.52941738166839 -0.56545326151197 -0.67673301725882 -0.55321777106301 -0.56210023153565 -0.3708456417126 -0.61354990152263 -0.60053443331236 -0.67271206408939 -0.61922953378016 -0.74193263489074 -0.62593336614845 -0.68876822309713 -0.67984319498609 -0.73345280647068 -0.71630177589017 -0.80546325682243 -0.72507160245585 -0.77262132693923 -0.50622129065479 -0.7727956732205 -0.78102786446464 -0.7402596087074 -0.52988587262528 -0.6430772787794 -0.7727732319315 -0.60000383033561 -0.67238288067273 -0.74271611300039 -0.70077333050861 -0.62785832461783 -0.65868044817307 -0.58597103757493 -0.59979947688178 -0.52960447063115 -0.55570324840012 -0.47903623946687 -0.59807862540246 -0.53171850764881 -0.56374213925515 -0.58118261840798 -0.8124262549689 -0.37227201196245 -0.65409699237579 -0.7470842714502 -0.78450662536929 -0.70878370962876 -0.76639395944586 -0.83539035568284 -0.8148000638596 -0.68943733755739 -0.72532844783426 -0.78521532979539 -0.82890862808113 -0.7913516878245 -0.87813513852769 -0.95275278446467 -0.8313119714736 -0.53994290086469 -0.55312583912156 -0.51601378686993 -0.48841418345992 -0.59574364994497 -0.61815346820826 -0.53061356845407 -0.27469230138342 -0.49693974678615 -0.57420635290181 -0.49048526182402 -0.50852947974083 -0.5024212264945 -0.49795056209685 -0.52387544507718 -0.53219088966434 -0.53268113971938 -0.68121556724068 -0.57972050631643 -0.46211213756825 -0.55039079494181 -0.71083710620914 -0.5872103592403 -0.55392279124836 -0.62781212116413 -0.59865838421059 -0.51742248987233 -0.56205455807304 -0.83150394573733 -0.61424169755843 -0.53972292168089 -0.56152907605134 -0.57994590781686 -0.82455023454896 -0.55737619696648 -0.62098871328354 -0.50233353324073 -0.79749843642013 -0.72025777073444 -0.76681816794204 -0.87141592965191 -0.89589723115904 -0.78108599445538 -0.85649393866178 -0.40445938863271 -0.45072712714296 -0.37830282932656 -0.40609657732238 -0.37487440880031 -0.30683773232066 -0.41032768173108 -0.48101471721663 -0.31244036560493 -0.26092139849704 -0.93348592684624 -0.6407000908894 -0.56400326792918 -0.36509919590682 -0.63821025981134 -0.59191800499283 -0.78357168317666 -0.74516100987457 -0.88076979071946 -0.71422512975026 -0.60842952118505 -0.60269408613126 -1.121304948314 -0.97699723155999 -0.82482635637879 -0.84979497581267 -0.81599738917882 -0.83784954879976 -0.071771180703743 -0.80778594972667 -0.44207977521349 -0.4483984436751 -0.57607103822224 -0.63091547639645 -0.6130319478903 -0.64534386752448 -0.72198850131027 -0.70100031820185 -0.53956440423387 -0.46921873087936 -0.66049423182698 -0.71602581015169 -0.63583560703252 -0.64476383646208 -0.62236572988908 -0.60560035533691 -0.66298445977842 -0.57794825935212 -0.68887936336803 -0.60515604310053 -0.61886524919488 -0.62495367689946 -0.64561574965393 -0.59540179894133 -0.5896664986706 -0.53045916296941 -0.5693161165954 -0.53212502622074 -0.57551233031316 -0.57182149475535 -0.55809807403405 -0.48773066710244 -0.55755921597418 -0.54161551238442 -0.55805148088603 -0.53047584443532 -0.54040523156121 -0.58378654841623 -0.51431077556737 -0.54412071272241 -0.5080015066539 -0.42033035242076 -0.48805616991893 -0.47620727608274 -0.58593662008609 -0.5414667135646 -0.67060392158262 -0.77352826041312 -0.63525224054102 -0.66672979371067 -0.68804488567743 -0.66817998985201 -0.70325017359642 -0.6729639022949 -0.74091191346726 -0.73075669269372 -0.73785660412946 -0.92731604271656 -0.13507715961101 -0.44521299202116 -0.46904258695862 -0.40483428278918 -0.50045158311997 -0.43396051153295 -0.39712706739389 -0.36576411928687 -0.4939066679467 -0.45183802329582 -0.52974698831605 -0.39122610620996 -0.39996884552891 -0.37653265581242 -0.32992744095284 -0.37010426844467 -0.32558089000142 -0.32165297750175 -0.34452074012882 -0.43924497070208 0.57187261178307 -0.36149863130032 -0.40535388735599 -0.37579939997013 -0.53306279300357 -0.3189