# vtk DataFile Version 3.0
d-2__ created by libgimli-v1.5.0-1-g5991b6ac
ASCII
DATASET UNSTRUCTURED_GRID
POINTS 3657 double
345.44229486978	-0.74837874212955	0
345.32900534553	-1.6744382205138	0
346.27315136784	-1.057961291206	0
344.59170233857	-0.95294496871354	0
343.984375	0	0
343.43588322896	-1.2165390676052	0
299.76122519655	-5.4706348310107	0
299.34087204692	-4.718237460868	0
299.16406336622	-5.4849625288262	0
317.94402253704	-16.117862526335	0
318.670381701	-15.214569780164	0
317.81509922054	-15.040089012313	0
283.36274880074	-1.0567988653316	0
282.68784738841	-1.7380274181028	0
283.44497196825	-2.3009382185008	0
344.95884860971	-17.155853965959	0
345.00189286579	-18.316447912617	0
345.96192029188	-17.87797639214	0
281.43677466167	-0.92110100650374	0
282.03125	0	0
281.015625	0	0
280	0	0
280.41127965573	-0.9421429072827	0
329.7633624357	-20.65547099239	0
330.36441152881	-21.311381866429	0
330.33318665762	-19.807930047872	0
284.5260956348	-1.319157057364	0
284.0625	0	0
315.49162498452	-12.002072876998	0
316.97654780196	-12.105662166119	0
316.5625	-11	0
283.046875	0	0
285.078125	0	0
285.72131075614	-0.99636975715166	0
288.63418787203	-1.3564433485024	0
288.125	0	0
287.42061925079	-1.0175209405498	0
326.15059896955	-0.83638185996054	0
326.71875	0	0
325.703125	0	0
287.109375	0	0
342.96875	0	0
289.80633080049	-1.0191486050846	0
290.15625	0	0
289.140625	0	0
290.68015202013	-0.80614696995117	0
342.439939269	-0.77372979065904	0
341.953125	0	0
294.7917512114	-2.3571539485882	0
295.79434583098	-1.2657133500624	0
294.57175210483	-1.0125758054599	0
286.57774245334	-0.74332885046234	0
286.09375	0	0
375.06330322939	-11.862652490382	0
375.625	-11	0
374.53125	-11	0
299.81792001487	-2.7687710972074	0
300.35824277219	-1.5280986886601	0
298.95360533278	-1.2959834405783	0
360.70875358381	-0.82976637636588	0
361.25	0	0
360.234375	0	0
289.63261167942	-2.0655042685332	0
288.80078080915	-3.0075714114845	0
290.33348039983	-3.0856346813192	0
292.1875	0	0
291.66177867662	-1.1758790470752	0
292.84257566637	-0.95384751002818	0
327.734375	0	0
327.15677655948	-1.2420290835978	0
295.234375	0	0
296.25	0	0
293.703793213	-0.7347464639354	0
294.21875	0	0
293.203125	0	0
331.796875	0	0
331.14911268892	-1.0112724486652	0
332.27045847464	-1.3019914071649	0
297.265625	0	0
296.92268942844	-0.96579372228859	0
366.328125	0	0
365.68526584955	-1.0168230002327	0
366.80985691506	-1.3013979285909	0
297.82039198297	-0.81017914601997	0
302.34375	0	0
301.57204575176	-1.1813526449838	0
302.90439786597	-1.2781792534447	0
303.03946030444	-2.4927857838668	0
303.95631468645	-2.0103375772584	0
299.296875	0	0
299.92646590323	-0.71544893592362	0
301.328125	0	0
303.359375	0	0
304.9419733042	-1.1852931133462	0
305.0857178372	-2.595837109584	0
300.89143289319	-3.7268148991359	0
301.18130801558	-2.4850213186501	0
308.4375	0	0
307.421875	0	0
307.88636847216	-1.2804285049225	0
303.90443400911	-0.90844470352803	0
304.375	0	0
311.484375	0	0
310.46875	0	0
310.97916635872	-0.91484377257296	0
305.90155464319	-0.80374303953901	0
306.76413948175	-0.99660296096057	0
306.40625	0	0
309.95377404698	-1.2412268550203	0
308.91863537775	-2.0557543429645	0
309.96104860229	-2.6124468057956	0
313.90367863118	-1.7674321317122	0
314.9100756932	-2.6069380991953	0
314.98285174468	-1.1339475417805	0
300.3125	0	0
300.70059914012	-0.69277351369531	0
308.92930186082	-0.92510983616046	0
362.265625	0	0
361.70597731837	-1.2335821556153	0
398.49022603627	-0.95118023058431	0
399.29731374602	-1.7010172350047	0
399.3730634584	-0.76352964314078	0
328.23418802963	-2.1327827830647	0
327.04995863858	-2.7179061034744	0
328.10932555858	-3.6769796554015	0
321.640625	0	0
322.33546928997	-1.3486425991868	0
322.65625	0	0
309.453125	0	0
332.8125	0	0
333.31758611449	-0.93188893676145	0
312.5	0	0
312.01421030809	-1.2609257298604	0
326.55607766895	-20.9512076901	0
326.81415844587	-19.868366818926	0
325.63619827025	-20.210354461867	0
336.17046440241	-1.0390520563907	0
337.34258894317	-1.3162439101954	0
336.875	0	0
313.14627232711	-0.9858014561878	0
313.515625	0	0
348.046875	0	0
347.03125	0	0
347.47842596707	-1.3536437887423	0
317.578125	0	0
316.84709983661	-1.0430904766166	0
318.02181404601	-1.3234341962196	0
314.01733336614	-0.78943271115211	0
349.46689326707	-1.7815223802654	0
350.35731459447	-2.6581058114569	0
350.5200979594	-1.1597711369561	0
335.859375	0	0
359.41407264463	-1.8699415881291	0
360.53996200444	-1.9482839336275	0
359.82137193532	-0.93855731580724	0
316.5625	0	0
367.34375	0	0
367.85317326207	-0.93122294713196	0
319.08454051129	-0.94286135512048	0
318.59375	0	0
371.88626846882	-2.6968843954815	0
371.87542815977	-1.2838748586173	0
370.86514122372	-2.200509712623	0
375.46875	0	0
374.453125	0	0
374.94232791229	-0.86918306114037	0
321.17906221184	-0.94558077109151	0
370.71183560202	-1.0271336855825	0
371.40625	0	0
325.22811602114	-0.93465651796221	0
324.67651814373	-1.8567143828987	0
325.90248108044	-1.9726689437385	0
380.94606292663	-1.0145910844777	0
381.5625	0	0
380.546875	0	0
320.625	0	0
370.390625	0	0
319.609375	0	0
375.83148837918	-1.0589786024279	0
376.484375	0	0
315.98217726169	-0.80386565646105	0
355.54630115957	-1.8978868106949	0
355.66831844253	-0.8516199984988	0
354.7915485506	-1.0389526873815	0
391.43769329041	-1.3685343691871	0
392.39762415016	-2.671752990974	0
392.83453008498	-1.5216676622959	0
324.6875	0	0
397.35851514616	-1.2360394047077	0
396.31667152182	-0.90780670180088	0
396.34070070688	-1.9999023261677	0
328.24006607361	-0.93308872076594	0
342.28158094297	-1.7240929943449	0
341.55256940744	-0.85011890749315	0
341.06754399151	-1.7179361165707	0
388.671875	0	0
388.17791473617	-1.3291634887691	0
389.34371481886	-1.0460019654051	0
402.890625	0	0
403.33811639252	-0.77178462276994	0
403.90625	0	0
329.31410410572	-1.2481798346352	0
329.765625	0	0
328.75	0	0
344.34765766081	-1.9427576276096	0
330.78125	0	0
330.2829028651	-0.82604976340485	0
401.875	0	0
402.40905146162	-0.86794579418971	0
403.10998853142	-1.7319883917638	0
404.32638176245	-1.2094598569601	0
334.34540823616	-1.193627013076	0
334.84375	0	0
333.828125	0	0
337.890625	0	0
335.31074923823	-0.81260092842821	0
322.12606817958	-2.747428270918	0
323.01455416532	-2.4237991402218	0
282.4049690185	-0.92355447444783	0
339.65368206794	-1.4042677681892	0
339.921875	0	0
338.90625	0	0
340.9375	0	0
323.29384017222	-0.79492433900009	0
323.671875	0	0
338.43924186568	-0.97267054631683	0
282.38392357815	-6.71250951682	0
281.26245920604	-6.0367604846526	0
281.56707918385	-7.3699766921132	0
340.62722728265	-0.80082810695497	0
386.25120942139	-1.8326020882457	0
385.14647285928	-1.1976671606389	0
385.22028570604	-2.8681700844013	0
319.06614109448	-2.1064570450347	0
320.12214992303	-1.2712312789862	0
345	0	0
346.015625	0	0
329.51444640714	-2.8723900939136	0
349.0625	0	0
348.68103475871	-1.0359341979066	0
290.60609556643	-1.7812278864788	0
352.41618889465	-1.1040378347062	0
353.63697562636	-1.3686659810474	0
353.125	0	0
349.56500329222	-0.8071147964766	0
287.5241310137	-2.2825959640523	0
286.52602258735	-1.6878010734062	0
352.109375	0	0
357.85896884212	-1.0894039546186	0
358.203125	0	0
357.1875	0	0
354.140625	0	0
291.171875	0	0
362.76363571576	-2.1438867015532	0
363.84510734239	-1.265641009858	0
362.77316532671	-0.93584481449524	0
355.15625	0	0
356.171875	0	0
356.66338009694	-1.3050280301086	0
363.28125	0	0
364.0483020738	-2.9760432078484	0
351.52975008536	-0.83592526291958	0
298.28125	0	0
364.296875	0	0
296.73411577278	-1.890345088882	0
376.08783455397	-2.0943975896206	0
376.89510909504	-2.9636161185146	0
376.98387981532	-1.3228478356995	0
365.3125	0	0
364.81660829759	-0.83483331379845	0
293.66760992073	-1.688906362786	0
377.5	0	0
359.21875	0	0
374.16302830933	-21.681728779496	0
373.16950471549	-21.077898078595	0
373.41703559905	-22.673853022767	0
305.390625	0	0
368.359375	0	0
369.84879523527	-0.8080878435019	0
368.88427296546	-1.1915043832017	0
369.375	0	0
373.4375	0	0
372.421875	0	0
372.91597465367	-0.91470765604117	0
378.07197911368	-2.1653898908286	0
379.32585848071	-2.8892023014143	0
379.10182264516	-1.2513716382475	0
396.796875	0	0
395.78125	0	0
297.6819882983	-1.7537862860515	0
378.03190167421	-0.95079486993347	0
382.09592341585	-1.3016374345833	0
378.515625	0	0
306.0128301459	-1.7836754752795	0
312.1076536951	-2.7773617452943	0
312.92080930885	-1.9828642166321	0
382.578125	0	0
383.24557447303	-1.0200064603132	0
383.59375	0	0
314.53125	0	0
315.546875	0	0
380.06651581122	-0.82915011188221	0
310.98463786606	-2.0329865368378	0
387.65625	0	0
387.02008393172	-1.0242957795292	0
316.04069224822	-2.7976870744584	0
315.95436770247	-1.7883514942787	0
386.640625	0	0
386.13570223047	-0.8228727433002	0
389.6875	0	0
394.00724165344	-1.167688430739	0
395.31656721188	-1.2555292491887	0
394.765625	0	0
391.71875	0	0
392.37338989667	-0.73141690904044	0
390.2649930736	-0.8743914413915	0
384.13052220759	-0.82374906212652	0
330.40834036376	-1.8215475278553	0
393.75	0	0
333.47776794871	-3.5455623306766	0
333.32829600302	-2.0912358546895	0
332.12627779557	-2.8669555370872	0
331.35695708343	-2.0087136246733	0
397.8125	0	0
343.40290249612	-2.9173543966204	0
398.828125	0	0
338.40066267575	-2.1165869671019	0
401.72686527464	-1.881439340604	0
404.921875	0	0
405.42511888168	-0.93609045423072	0
405.9375	0	0
335.33308839799	-1.7732143159922	0
407.57439902527	-0.91845202885849	0
408.55892722411	-1.0390572048335	0
407.96875	0	0
348.44945977828	-2.1614755500577	0
408.984375	0	0
409.64579943804	-0.93274479805356	0
410	0	0
350.078125	0	0
351.09375	0	0
344.96449486909	-2.8411413037746	0
393.13994783719	-0.69399796004703	0
392.734375	0	0
351.48288146008	-1.8785345486449	0
352.56127672653	-2.4876674855893	0
353.79435017936	-2.8298004912344	0
358.5493188064	-1.8246639619509	0
358.91293493747	-2.7632851951456	0
354.57879025645	-2.0855017523654	0
364.9548746167	-1.854617942693	0
365.91113364048	-2.0225199197494	0
366.70324723339	-2.8669675982067	0
368.05339608415	-3.6034268614039	0
367.87775324316	-2.0946116819971	0
379.53125	0	0
373.93706207799	-1.2266272403076	0
[...]
CELL_DATA 6990
SCALARS Coverage double 1
LOOKUP_TABLE default
1.1800680686472 1.3575095925009 0.4043708376667 -0.19387806136865 0.854654537528 -0.24668211217526 1.5025154026127 1.3248813202733 -0.38864759148284 1.191774283056 0.0065387986908469 1.6078771619691 1.2114558216108 1.1145535117623 1.6649641578118 1.692895086811 1.6438107686715 1.5791870109388 1.2138531482218 1.6546581195073 1.692282886652 1.0257933562 1.7129679858539 0.044402985465489 0.95348198426178 1.5907118468334 0.59258726003986 1.1546923336322 1.5988994205541 1.6171803361537 1.6634471671961 1.2787073687745 1.6162030532033 1.1474049726664 1.2571938787914 1.4098642236488 1.1112530614917 1.1845241336782 1.3121747623986 0.88653919014568 1.6305235416446 1.335035161042 1.6774754074428 1.6948086095622 0.89703873317129 0.69323187896183 1.607149589387 1.6020675206556 1.6656740776618 1.1769541160721 0.8444144216717 0.89318152985193 1.316995140056 1.6368884377316 1.1974794491489 1.7139460992023 1.1692835381507 1.5801169320107 1.1561240575318 0.66324066074474 1.6066943833092 1.6453896464562 1.2586239677349 1.6082138604402 1.329341166173 -0.36681199739685 1.1526622499537 1.6491461650733 1.608659509349 1.2870407822715 1.3851477136903 0.88045357884918 1.1842717603031 1.5844944126542 0.97678105951719 1.6262784125109 1.1536407472313 1.1802976982962 1.6247656066237 0.86216985504827 1.5749872137758 1.3055097754844 1.2134148844661 0.93458297357622 1.4022675208517 1.718477977125 1.6481157618628 1.6548162673085 1.6574547515706 1.6031223388891 1.2402537089324 1.063432336227 0.89069429420203 1.6447876467321 1.0746232567051 1.3348480552906 1.0047809861873 1.2976247472107 1.6748115808105 1.5682758210522 1.0817703889183 1.5968207234363 1.6997982449312 1.1862399340426 1.2931787043488 1.6974483135894 1.6583159883089 0.99641861907958 1.4277608889212 1.5497149907298 1.4862137303255 1.6426213358035 1.4189142704086 0.78285818271692 1.2078899186138 1.2046672811345 1.6321648409505 1.6925534418703 1.6649386335778 1.607979835666 0.15795488512837 1.326386654986 1.1474436484201 1.7617793030791 1.2603471577799 1.2259997517 0.86864608924592 1.0514196229118 1.0134127539233 1.6465682912982 1.0611458559044 1.6378702269746 1.2418583002456 0.81752950545465 1.7000951389801 1.6439754979294 1.0692847230841 1.1761143957063 1.2198308601364 0.95865385292844 1.3174647396394 1.1880829053863 0.97561428228791 1.6519101374062 1.5739078269905 1.3116219631977 1.5693840722302 1.6952815577653 1.0286237289212 1.1746412826897 1.0962867917178 1.6585629083418 1.1502135659987 1.1445297322955 1.3172337388655 0.82095601508951 1.6561513262799 1.1238964329373 1.377482882394 1.5831991634254 1.5669857519548 1.2995782807376 1.6827024594692 1.5637152617641 1.6351145043513 1.009311962068 0.85109015486476 1.7196363442075 1.1944532272659 1.5256253600026 0.91241276448399 1.5909424190678 1.7262351731835 -0.42622933560404 1.6374473938731 1.6504459965281 1.6225372249455 1.1733364698095 1.3158678314435 1.6033605381854 1.0363572133012 1.082471939081 1.3184688563204 1.6240517756544 1.7200371024529 0.84521499503924 1.030726739611 1.3335600755598 1.0757860665477 1.5631571902215 1.7179840137322 1.6490002147416 1.0844079891235 1.1968689780684 1.6351116828386 1.1120589702373 1.187487843648 1.1209502322666 1.547971962133 1.1370930496195 0.84964807687195 1.6691210799083 1.0363916011671 1.6162651660429 1.2159261793518 1.634509294761 1.3225328714557 1.0498696348993 1.665644360203 1.1389672101633 0.72257359707676 1.6023947273562 1.4024399201148 1.1429899313387 0.8884329013771 1.6133954227475 1.0189999316754 1.2743789236955 1.2845389957423 1.3252432341115 1.1916497219092 1.6156112660962 1.6120150223115 1.0234025316315 1.3143796790021 1.6690774161431 1.1080428955112 1.6161517425981 0.71725366487087 1.1810057362371 1.6309442589764 0.87218510892516 1.2889686566724 1.1927148019995 0.81887563601648 1.4037598361899 1.1542053720866 1.0472707627323 0.88927400573298 0.96915707660838 1.6431516297924 1.1637275014127 1.7004799398475 1.6127143596897 1.6797475387058 1.652552225685 1.2713331674393 1.0741628744871 1.0650233825445 1.0048537987042 1.0178270485871 1.2510390551781 1.6569862464796 1.5756489695145 1.6443601151025 0.79336525823903 1.0801826341413 1.1595050130382 1.697240746449 1.6860681015919 1.6383649910063 1.3203371897653 1.0374451303756 1.258420588269 0.74796735286253 0.94307695440196 1.0390622641401 1.593234786474 1.7359393426811 1.0856975504736 0.83739383247708 0.64840572536089 0.98317216825104 1.3493596190433 1.0938534676418 1.6606522428469 0.97352889173957 1.254236736912 1.6857370308401 1.0714926472317 0.88119391705941 1.1562042855445 1.0764883744643 1.1653806448791 1.5924708835013 1.0326565615375 1.6178660677373 1.0610385223363 0.88840369700245 1.5117226915078 1.0740767159383 1.7212434863966 1.6569187404066 1.0344048281614 0.81335272900136 1.6139154644546 1.0448924211781 1.6432316795802 0.82238874007795 1.6605301803123 1.0135090067228 1.3421283838602 1.6648684358212 1.1045735156662 0.48888029138241 0.51214031292015 0.97246390137176 1.6176459455637 0.97466225823616 1.0539265328556 1.2420594379694 1.6608182387907 1.0459055493465 0.67528838286618 0.93949152487851 1.4137136411263 1.6622966343107 1.1284271027072 1.0091476103712 1.3970552326037 1.4987530192148 1.4022886281543 0.96018987439 1.0456108161794 1.6553586377955 1.0854904294529 0.67601967068546 1.070135768873 1.1596725624259 0.98693897616168 0.96677939590251 1.214915319714 1.1064804767677 0.45475016862079 0.92063689744755 1.4045772489346 1.7288640544936 1.2037368495547 0.72379502804843 1.0604006196233 1.1984896929109 1.3798604737508 1.0740139622638 0.63021262039938 0.9762700676422 1.1971256520147 1.4062233828624 0.9906255594813 0.97210356193459 0.85377938300702 1.32385229986 0.75778454556906 1.0772709933783 1.0668617411052 1.3516178678562 0.89846800060633 0.69806091208553 0.83397649977549 0.68536746068126 1.1837130419047 0.71897611835319 1.0097215967442 0.95677336098304 1.2096870973217 1.3674697973245 0.70044997311091 0.48520531967456 0.46334352642479 1.1795452837746 1.0181919249726 0.8047414705116 1.2082917106923 0.79671596040554 1.0381741433442 1.3457032936592 0.87515024563522 0.69429499994003 1.0366668487491 0.77490951002893 0.79255079383004 0.95798884457595 0.65065046305053 1.2739906203391 0.84592235892804 0.92419997318102 0.4945362540512 0.93989752172929 0.94890126986886 0.90261853262747 1.3812361733902 1.1923650798505 0.69517350224557 0.44052032603452 0.4808371897702 0.84385066487924 1.2049845395321 0.4691131144599 1.0327413589583 0.92787789335772 1.2906277656881 1.3532467807267 0.96769016312775 0.73732864255815 1.1093708465973 0.56951082467044 0.84463416229586 1.0764114629206 1.1489139583218 1.2365502972797 0.97410342306923 1.1233983921261 0.7920118054928 1.0611149983638 0.69236922144694 1.1445322214673 0.85288469701505 0.82487020811605 0.43331135006185 1.1209701590291 0.96048548384471 0.6653932332597 1.203008553089 0.73194575384383 0.98746062516572 1.0090132252327 1.3304982939008 1.230844700032 0.87861514352441 0.67631680086555 1.0499829224834 1.2879181164459 1.342283257663 0.64086857676911 0.44712385521592 0.90041458871165 1.3126696551545 0.84931081651872 1.4322892800596 1.0274746502113 1.70115986896 0.65787818056168 0.49227650379243 1.4502555338276 0.68940180785662 1.5801564697151 0.774822007574 0.86571482722239 0.64970032919207 1.6977168423821 1.0571351275828 0.52803643684184 0.80125224230969 0.83738114355856 0.70681176603336 1.332884394304 0.81824525168327 0.7153544503687 0.91370443126525 0.82435275469926 0.77034804966208 0.76793040708552 0.87235985324448 1.3644318117043 0.78747926232141 0.66756623373297 0.69620999929415 0.57191250508253 0.8028295001816 0.79428593383831 0.69243817198904 0.58750413135993 0.48482854932692 0.49988371092609 0.86896070547883 1.0592168491778 0.66606420078128 0.689789820862 0.7247988198303 0.69330835976473 0.61598350365033 0.82824948145869 0.79184325175469 1.0785656107085 0.54336196508714 0.64095984680497 0.028244786998498 1.1305423410125 0.70950654082391 0.80971161703613 0.41422117668904 0.46057097196888 0.70519489659067 1.1765636426705 0.56356024347447 0.65363375966591 0.54738490555107 0.75718064194655 0.76937669041886 1.1370141492807 0.55928379402865 0.66083415977588 0.81812106467614 1.1829871024169 0.69189940578624 0.85315986484476 0.93402252098878 0.75590014571718 0.74142850203776 1.0300196495014 0.65962236232663 0.43965828472144 0.50107142795789 0.65499894961113 0.44896210318816 1.1818772379539 0.44443930818529 0.63555813807148 0.38965614702155 1.1621178138149 0.76943596300278 0.66263184800596 0.57453596308693 0.96824086215429 0.89944765814741 1.1941757584275 0.66279065129529 0.80524094414717 0.77639183230133 0.86070297953623 0.66434153766873 0.94517280474416 1.2128416864984 0.60734399618279 0.64840455026701 1.2087205802207 0.75918535192325 0.83556566276229 0.31248781921443 1.3966100489968 0.75730030621587 0.43617819675766 0.78188726501984 0.91224107301603 1.0912692418018 0.6339386094397 0.46122124181952 1.2261051982115 0.66765662593145 1.0401221854152 0.80188826239671 0.29628854658764 0.42236916806671 0.9976509048909 0.78791034390236 1.1721775948884 0.68084733595514 1.2141680276186 0.83094869541742 0.70080439379198 0.78901574717901 1.0303972404437 0.83293724169799 0.6651449013563 1.1032267236369 1.1553827390573 0.69599308056906 1.1488012037682 1.0027735455207 0.57139546819953 0.43892743788458 0.65800042989886 1.0521664006601 0.5253272428984 0.65707578199951 0.89402821145327 0.75225247495018 0.91846924192408 0.60571575719294 1.0526332924335 0.70505992736718 0.78832964894445 0.92989705917945 0.49348725316502 0.681619842174 0.5528154151309 0.54102493853441 0.67294979051155 0.47645611359668 0.48136519283717 1.074109245181 0.77098296906173 0.9128539483858 0.41280802929225 0.82447266726442 0.62694522186216 0.74170357029791 0.68658266206898 0.67001252645574 0.83863955683968 0.95461593611013 0.43749738743297 0.56425099758557 0.51117530770071 0.94982136059745 0.55186146477414 0.45923429942286 0.50827948215868 1.1365728989058 0.71411961710131 0.87707369258032 0.39388759979038 0.4916518172489 0.71152516613665 1.0849591355732 0.88967426301391 1.0273454532846 0.43904153630879 0.55838863545479 0.78598114970582 0.88614981919134 0.71023892647723 0.95910406815448 0.9116504383571 0.99006888955162 0.54078922963415 0.54493916472341 0.69377191458328 1.1134841394039 0.7899522155012 0.9519938119586 0.4332925009893 0.48152314759475 0.64385120197593 1.0631953692454 0.799498463412 0.74877943559829 0.83194124213528 0.57305505223691 0.95091631736047 0.81393273764055 0.86171593726831 0.64873894311333 0.91998104481703 0.45571389783851 0.50934001431234 0.41986755723985 1.1503723595116 0.64331058567366 1.0523921874145 0.80391065899922 0.55654410174174 0.5371258288646 0.21233991468395 0.73891805716756 0.70936473523335 0.62825851606709 0.70022186622832 0.64872480015741 0.51516633280755 0.63784719487372 0.7730272707619 0.65781818471931 -0.053836098580682 0.78124740382421 0.47284103418416 0.57471596042468 0.57085143610901 0.61394351521434 0.56853552621241 0.3958519562348 1.14189088506 0.77736670758979 1.0831402961707 0.77446817922397 0.5635816668937 0.84096358849801 0.61110778380411 0.59055908752436 0.46225023748747 0.45602462120835 0.48230284564446 0.6748285370967 0.57521852508853 0.56279048489061 0.67622950314598 0.5907228999882 0.53151519965814 0.42064376276958 0.65306371665774 0.40055858475663 0.47017843261401 0.50414900349958 0.69996708243466 0.65213621997429 0.60449258615645 1.0747495799562 1.0225941027949 0.68900688557324 1.0578797528863 0.72579497304821 0.551673791464 0.75510746571691 0.86890471508579 0.56343395525499 0.65468469016303 0.60426166690114 0.34155714969101 0.58970073662363 0.83920594680501 0.55229023771069 0.87266743428036 0.57471305457443 0.86338862941001 0.52366174754203 0.48802384813366 0.4803345654599 0.53918669097205 0.52834518266551 0.37424319936614 0.55401132385059 0.41808336082668 0.51689439350515 0.4999182291712 0.52182581264683 0.49841796251795 0.48903545623707 0.57210864761249 0.66988591209785 0.40439671742966 0.46463732040427 0.82046411791863 0.91712351467701 0.50959977327041 0.5021169134112 0.4040514931625 0.41098473233811 0.51754071778832 0.66145888174764 0.59229432722814 0.074187390355696 0.69710952928847 0.59058419761249 0.80149446138395 0.60033980586324 0.44666106729556 0.41991899275401 0.81694080158447 0.69972452598214 0.42032946843158 0.4071160907026 0.42449917748953 0.40285550677828 0.64728040458156 0.69465066214849 0.41209354494096 0.46859058492468 0.44409401969611 0.6363567943103 0.57651118079612 0.44970250401423 0.56186023598377 0.41068047510249 0.4475021721811 0.46452006336996 0.42969586922042 0.5855441192902 0.57378172583819 0.52267453471786 0.64725873809054 -0.45907104952112 0.52750663627158 0.94896073497151 0.51497086035236 0.40558833573147 0.62329277472365 0.56056047324983 0.4117385519707 0.51988053640524 0.12743170604342 0.44536142741721 0.65623407137873 0.75152403337212 0.44353423419667 0.52682582478054 0.031213973436827 0.74290603088463 0.77862845905177 0.53523307464499 0.63292092828715 0.56137246315763 1.1350938577336 0.82233404516627 1.2211872246704 0.72902070861457 0.50928820555063 0.56087659179592 0.44755292862634 0.78628298995765 0.42952886702274 0.48605477324972 0.87488388163618 0.60977714907644 1.0314944341 0.8256554932398 0.4614565539782 0.37575031099852 0.6320495308046 0.4426740692751 0.38082261637715 0.41213945956235 0.48077848840641 0.56986683700968 0.47961419553513 0.58757555373956 0.4288456862265 0.39107468126942 0.57613921541026 0.44571352182448 0.49119873919797 0.61109414955829 0.48427137987254 0.67718608476139 0.050549344144807 0.47099077555872 0.57163161173094 0.42666734202507 0.59245899458393 0.36240484755892 0.48234981613932 0.50642032212125 0.44583543660785 0.40258553361168 0.46734897619777 0.46809094166027 0.46067640037499 0.47498898952747 0.6213086083859 0.39423871978326 0.82837601241798 0.42891174802622 0.4283710298475 0.51318028444417 0.4310083126795 0.29918874435239 0.37931848706165 0.48027198094557 0.51389734804303 0.5544086145868 0.43504979527088 0.51235344753047 0.40463574705573 0.54172079689891 0.5686253300824 0.4274511379991 0.44660384173414 0.44137880948462 0.59528268067321 0.44956706273499 0.42741246075197 0.63978605578587 0.38237820929117 0.53733925706858 0.52595577559013 0.47120700933623 0.54963560037182 0.61498245790901 0.44059089674857 0.43107168281092 0.81952486142029 0.41918777666221 0.6435648522918 0.54003168576569 0.4529948634111 0.40078348582142 0.43998853994641 0.40142988188972 0.44031184708977 0.4731183764217 0.42798277424303 0.44517081137997 0.42951574723418 0.45173892376539 0.20352849945873 0.48963409480257 0.24725050323562 0.49203515418782 0.40660230667032 0.46305286971059 0.45710665175952 0.42409002288975 0.4383971757071 0.44914017722246 0.46579561939673 0.44455330148275 0.47064419507032 0.41949082729099 0.44494922142819 0.41350350551802 0.59569146264497 0.44496265163171 0.40542744977374 0.44253660731377 0.43476174218504 0.40407432192538 0.46165650337281 0.3888255448771 0.38178789223737 0.42512089751872 0.65377937714767 0.43589777620909 0.38102127620841 0.41784798464029 0.44213352922125 0.40118146701077 0.43319818092487 0.3192804790689 0.39160812122736 0.38677714776206 0.41297229999542 0.43990466703505 0.38394799518772 0.45621326566456 0.45474081040742 0.38512795322693 0.39932785773713 0.23700534641843 0.41115732726653 0.3905429600011 0.43419720104971 0.42677812397338 0.39800735930998 0.41668346073239 0.39084279599827 0.42663329843086 0.45988787068497 0.3883803557461 0.43152221868445 0.42904514067971 0.43827060684849 0.28758831755314 0.39764910606309 0.38068737407951 0.030594312104518 0.39581181843321 0.3651681573886 0.41050773135458 0.38893269250915 0.30199359053347 0.37381003988752 0.40637605818221 0.37733783962796 0.43371495246034 0.19582405500901 0.33227709194065 0.31123996369665 0.34332554290617 0.23185642454961 0.18159468040968 0.2046334382622 0.16459251946185 0.11726440259687 0.29207811621064 0.32470710413836 0.17931604577803 0.27932926748179 0.11675700762906 0.40383512497764 0.14960000255307 0.064253588036278 0.10216361312729 0.17986257270772 0.15417233370445 0.12774380908613 0.20511439382018 0.10165040877576 0.20473193916349 0.09422832118406 0.26170976087766 0.13432186037958 -0.0026106046431304 0.30511561851972 0.36260758367217 0.13420967827678 0.11429762144544 0.3353145262413 0.0964797999897 0.072166277308572 0.11313840789034 -0.17341429891954 0.59642461254366 0.53897317286085 0.50012548751685 0.64761053259105 0.49557101579692 0.44023405525004 0.48694043891131 0.47872382252442 0.48419901580984 0.42308052989648 0.41922588884803 0.48980954299182 0.53215220471589 0.41213971850441 0.47258613950087 0.44217512215213 0.57469329306788 0.51918755833072 0.57350023957339 0.49219764286289 0.43006039944948 0.44994524959622 0.53696809517331 0.45875456144794 0.44978189712548 0.46447289753613 0.075863018664459 0.43117065132395 0.66260692560718 0.65422167881305 0.69691526412258 0.40413538515287 0.56950811740475 0.48543955148296 0.55185649694065 0.45962168265539 0.46538946417706 0.45942756129245 0.44252659543493 0.4765125651904 0.42492324564122 0.51364617805865 0.42200430173734 0.45729278756632 0.45713590733031 0.42181082533582 0.60549767194549 0.52820555381263 0.44046709131742 0.43013632621518 0.44598090011767 0.45849715339795 0.44228193836397 0.4278570818739 0.28090480627191 0.45719431499001 0.43933220004814 0.44488456980388 0.45343451509304 0.45889636293158 0.44242219752565 0.43826792800422 0.51388578297263 0.41884356743039 0.52408981291895 0.47480084080041 0.34408810374677 0.41115388468556 0.37909664626907 0.39185920534004 0.42529406174046 0.44961855707724 0.40782440864305 0.40598291057352 0.39102818382825 0.42347400025855 0.46397954689524 0.44522358390941 0.40816744302965 0.43599168153822 0.36266424470479 0.40237159918812 0.39073237545997 0.42940630611036 0.37510954469566 0.40504991669675 0.41731738611432 0.48085226559199 0.38699828717127 0.15254111776696 0.38403812462157 0.39119839509523 0.46592708729274 0.46409909526247 0.53734631992882 0.56861055216529 0.46472554488413 0.61580741132048 0.63328562261853 0.6302604384734 0.46067833071595 0.4440229463519 0.47026512198316 0.49101833204537 0.44024448780855 0.35991605180341 0.52126544264922 0.40848137337308 0.42851011279578 0.38425941658094 0.44376757068623 0.54439955040028 0.55700361801416 0.47701275195535 0.41758608808671 0.53380513475443 0.65754048700533 0.67050374232096 0.70796630584942 0.41630120785484 0.54671409536601 0.44060575821405 0.39810368379826 0.54020312341384 0.44387477722487 0.45873789761558 0.45753038445956 0.45162325478288 0.4433786891793 0.59467282498349 0.56200873947241 0.53383424553402 0.62340578342609 0.45710904777189 0.60821877258422 0.40419665080972 0.43385722671431 0.29976911204813 0.43810646657947 0.082850348722425 0.40206191163323 0.27092723921212 0.22477571052814 0.35403402717405 0.38143619009263 0.35362996992994 0.31443786680879 0.34561313493599 0.32251053291316 0.26726337426329 0.36009527723909 0.29445041518178 0.34379373578051 0.48195229907413 0.47992560723659 0.44764303262372 0.46360910208444 0.44292915669011 0.47744141636492 0.47293648637671 0.46985558126996 0.49558461945205 0.45903813238813 0.49416870535831 0.47648496347897 0.47727079701238 0.43876320643141 0.63635547333425 0.43599924888397 0.47032636565209 0.45402238839301 0.051269156483454 0.47834428655837 0.46195153667071 0.41050912208023 0.47499979482141 0.45008186687121 0.60784056652575 0.47134407182542 0.43210387942653 0.43904575671595 0.44933828823959 0.44763785695947 0.56408553375573 0.43044776431009 0.42995898941807 0.40600933215745 0.40907965515182 0.43769224848478 0.432487668532 0.31948165704387 0.4305076103643 0.4451309143288 0.40820414210391 0.47897850579625 0.46506958903625 0.3789325072169 0.43858063620454 0.44203154329481 0.42174121122856 0.38664497885131 0.42756495927445 0.45514971097736 0.37287901997633 -0.013271446433612 0.32077467595629 0.36643199763445 0.24429049403468 0.17064870399735 0.33277247180786 0.32606154365987 0.27782226704